
     Program PWSCF v.6.7MaX starts on 15Jan2021 at 11: 1:28 

     This program is part of the open-source Quantum ESPRESSO suite
     for quantum simulation of materials; please cite
         "P. Giannozzi et al., J. Phys.:Condens. Matter 21 395502 (2009);
         "P. Giannozzi et al., J. Phys.:Condens. Matter 29 465901 (2017);
          URL http://www.quantum-espresso.org", 
     in publications or presentations arising from this work. More details at
     http://www.quantum-espresso.org/quote

     Parallel version (MPI), running on    32 processors

     MPI processes distributed on     1 nodes
     R & G space division:  proc/nbgrp/npool/nimage =      32
     Waiting for input...
     Reading input from standard input

     Current dimensions of program PWSCF are:
     Max number of different atomic species (ntypx) = 10
     Max number of k-points (npk) =  40000
     Max angular momentum in pseudopotentials (lmaxx) =  3
     file Sn.pbe-dn-kjpaw_psl.1.0.0.UPF: wavefunction(s)  5S 5P 4D renormalized
     file I.pbe-n-kjpaw_psl.1.0.0.UPF: wavefunction(s)  5S renormalized
     file Cs.pbe-spn-kjpaw_psl.1.0.0.UPF: wavefunction(s)  5S 6S renormalized

     Subspace diagonalization in iterative solution of the eigenvalue problem:
     a serial algorithm will be used

     Message from routine setup:
     using ibrav=0 with symmetry is DISCOURAGED, use correct ibrav instead

     Parallelization info
     --------------------
     sticks:   dense  smooth     PW     G-vecs:    dense   smooth      PW
     Min          92      92     25                 9510     9510    1393
     Max          94      94     26                 9521     9521    1398
     Sum        2963    2963    825               304449   304449   44685


     Title: 
     CsSnI3                                                                     


     bravais-lattice index     =            0
     lattice parameter (alat)  =       9.1317  a.u.
     unit-cell volume          =    6370.5385 (a.u.)^3
     number of atoms/cell      =           20
     number of atomic types    =            3
     number of electrons       =       176.00
     number of Kohn-Sham states=           89
     kinetic-energy cutoff     =      50.0000  Ry
     charge density cutoff     =     200.0000  Ry
     scf convergence threshold =      1.0E-06
     mixing beta               =       0.7000
     number of iterations used =            8  plain     mixing
     Exchange-correlation= SLA  PW   PBX  PBC
                           (   1   4   3   4   0   0   0)

     celldm(1)=   9.131705  celldm(2)=   0.000000  celldm(3)=   0.000000
     celldm(4)=   0.000000  celldm(5)=   0.000000  celldm(6)=   0.000000

     crystal axes: (cart. coord. in units of alat)
               a(1) = (   1.000000   0.000000   0.000000 )  
               a(2) = (   0.000000   2.227728   0.000000 )  
               a(3) = (   0.000000   0.000000   3.755420 )  

     reciprocal axes: (cart. coord. in units 2 pi/alat)
               b(1) = (  1.000000  0.000000  0.000000 )  
               b(2) = (  0.000000  0.448888  0.000000 )  
               b(3) = (  0.000000  0.000000  0.266282 )  


     PseudoPot. # 1 for Sn read from file:
     ../../../pseudo/Sn.pbe-dn-kjpaw_psl.1.0.0.UPF
     MD5 check sum: 67f11dec737d427557dc41ea34975807
     Pseudo is Projector augmented-wave + core cor, Zval = 14.0
     Generated using &quot;atomic&quot; code by A. Dal Corso  v.6.3
     Shape of augmentation charge: PSQ
     Using radial grid of 1243 points,  6 beta functions with: 
                l(1) =   0
                l(2) =   0
                l(3) =   1
                l(4) =   1
                l(5) =   2
                l(6) =   2
     Q(r) pseudized with 0 coefficients 


     PseudoPot. # 2 for I  read from file:
     ../../../pseudo/I.pbe-n-kjpaw_psl.1.0.0.UPF
     MD5 check sum: cd3d296c3308a581e1559a0c8a554cb5
     Pseudo is Projector augmented-wave + core cor, Zval =  7.0
     Generated using &quot;atomic&quot; code by A. Dal Corso  v.6.3
     Shape of augmentation charge: PSQ
     Using radial grid of 1247 points,  6 beta functions with: 
                l(1) =   0
                l(2) =   0
                l(3) =   1
                l(4) =   1
                l(5) =   2
                l(6) =   2
     Q(r) pseudized with 0 coefficients 


     PseudoPot. # 3 for Cs read from file:
     ../../../pseudo/Cs.pbe-spn-kjpaw_psl.1.0.0.UPF
     MD5 check sum: b82c75cc2e1f4ff73b6412cffeb9c584
     Pseudo is Projector augmented-wave + core cor, Zval =  9.0
     Generated using &quot;atomic&quot; code by A. Dal Corso  v.6.4.1
     Shape of augmentation charge: PSQ
     Using radial grid of 1251 points,  9 beta functions with: 
                l(1) =   0
                l(2) =   0
                l(3) =   0
                l(4) =   1
                l(5) =   1
                l(6) =   2
                l(7) =   2
                l(8) =   3
                l(9) =   3
     Q(r) pseudized with 0 coefficients 


     atomic species   valence    mass     pseudopotential
        Sn            14.00   118.70000     Sn( 1.00)
        I              7.00   126.90000     I ( 1.00)
        Cs             9.00   132.90000     Cs( 1.00)

      8 Sym. Ops., with inversion, found ( 6 have fractional translation)


                                    s                        frac. trans.

      isym =  1     identity                                     

 cryst.   s( 1) = (     1          0          0      )
                  (     0          1          0      )
                  (     0          0          1      )

 cart.    s( 1) = (  1.0000000  0.0000000  0.0000000 )
                  (  0.0000000  1.0000000  0.0000000 )
                  (  0.0000000  0.0000000  1.0000000 )


      isym =  2     180 deg rotation - cart. axis [0,0,1]        

 cryst.   s( 2) = (    -1          0          0      )    f =(  0.0000000 )
                  (     0         -1          0      )       (  0.5000000 )
                  (     0          0          1      )       (  0.5000000 )

 cart.    s( 2) = ( -1.0000000  0.0000000  0.0000000 )    f =(  0.0000000 )
                  (  0.0000000 -1.0000000  0.0000000 )       (  1.1138638 )
                  (  0.0000000  0.0000000  1.0000000 )       (  1.8777098 )


      isym =  3     180 deg rotation - cart. axis [0,1,0]        

 cryst.   s( 3) = (    -1          0          0      )    f =(  0.5000000 )
                  (     0          1          0      )       ( -0.5000000 )
                  (     0          0         -1      )       ( -0.5000000 )

 cart.    s( 3) = ( -1.0000000  0.0000000  0.0000000 )    f =(  0.5000000 )
                  (  0.0000000  1.0000000  0.0000000 )       ( -1.1138638 )
                  (  0.0000000  0.0000000 -1.0000000 )       ( -1.8777098 )


      isym =  4     180 deg rotation - cart. axis [1,0,0]        

 cryst.   s( 4) = (     1          0          0      )    f =( -0.5000000 )
                  (     0         -1          0      )       (  0.0000000 )
                  (     0          0         -1      )       (  0.0000000 )

 cart.    s( 4) = (  1.0000000  0.0000000  0.0000000 )    f =( -0.5000000 )
                  (  0.0000000 -1.0000000  0.0000000 )       (  0.0000000 )
                  (  0.0000000  0.0000000 -1.0000000 )       (  0.0000000 )


      isym =  5     inversion                                    

 cryst.   s( 5) = (    -1          0          0      )
                  (     0         -1          0      )
                  (     0          0         -1      )

 cart.    s( 5) = ( -1.0000000  0.0000000  0.0000000 )
                  (  0.0000000 -1.0000000  0.0000000 )
                  (  0.0000000  0.0000000 -1.0000000 )


      isym =  6     inv. 180 deg rotation - cart. axis [0,0,1]   

 cryst.   s( 6) = (     1          0          0      )    f =(  0.0000000 )
                  (     0          1          0      )       ( -0.5000000 )
                  (     0          0         -1      )       ( -0.5000000 )

 cart.    s( 6) = (  1.0000000  0.0000000  0.0000000 )    f =(  0.0000000 )
                  (  0.0000000  1.0000000  0.0000000 )       ( -1.1138638 )
                  (  0.0000000  0.0000000 -1.0000000 )       ( -1.8777098 )


      isym =  7     inv. 180 deg rotation - cart. axis [0,1,0]   

 cryst.   s( 7) = (     1          0          0      )    f =( -0.5000000 )
                  (     0         -1          0      )       (  0.5000000 )
                  (     0          0          1      )       (  0.5000000 )

 cart.    s( 7) = (  1.0000000  0.0000000  0.0000000 )    f =( -0.5000000 )
                  (  0.0000000 -1.0000000  0.0000000 )       (  1.1138638 )
                  (  0.0000000  0.0000000  1.0000000 )       (  1.8777098 )


      isym =  8     inv. 180 deg rotation - cart. axis [1,0,0]   

 cryst.   s( 8) = (    -1          0          0      )    f =(  0.5000000 )
                  (     0          1          0      )       (  0.0000000 )
                  (     0          0          1      )       (  0.0000000 )

 cart.    s( 8) = ( -1.0000000  0.0000000  0.0000000 )    f =(  0.5000000 )
                  (  0.0000000  1.0000000  0.0000000 )       (  0.0000000 )
                  (  0.0000000  0.0000000  1.0000000 )       (  0.0000000 )


   Cartesian axes

     site n.     atom                  positions (alat units)
         1           Cs  tau(   1) = (   0.2500000   0.1859640   2.5168147  )
         2           Cs  tau(   2) = (   0.7500000   2.0417636   1.2386050  )
         3           Cs  tau(   3) = (   0.2500000   1.2998278   3.1163149  )
         4           Cs  tau(   4) = (   0.7500000   0.9278998   0.6391048  )
         5           Sn  tau(   5) = (   0.2500000   0.7615710   1.6485466  )
         6           Sn  tau(   6) = (   0.7500000   1.4661567   2.1068731  )
         7           Sn  tau(   7) = (   0.2500000   1.8754348   0.2291632  )
         8           Sn  tau(   8) = (   0.7500000   0.3522928   3.5262565  )
         9           I   tau(   9) = (   0.7500000   0.0581437   0.4202578  )
        10           I   tau(  10) = (   0.2500000   2.1695839   3.3351619  )
        11           I   tau(  11) = (   0.7500000   1.1720075   1.4574521  )
        12           I   tau(  12) = (   0.2500000   1.0557201   2.2979676  )
        13           I   tau(  13) = (   0.7500000   0.6531118   2.9738192  )
        14           I   tau(  14) = (   0.2500000   1.5746158   0.7816005  )
        15           I   tau(  15) = (   0.7500000   1.7669756   2.6593103  )
        16           I   tau(  16) = (   0.2500000   0.4607520   1.0961094  )
        17           I   tau(  17) = (   0.7500000   0.3753632   1.8734812  )
        18           I   tau(  18) = (   0.2500000   1.8523644   1.8819384  )
        19           I   tau(  19) = (   0.7500000   1.4892270   0.0042286  )
        20           I   tau(  20) = (   0.2500000   0.7385006   3.7511911  )

   Crystallographic axes

     site n.     atom                  positions (cryst. coord.)
         1           Cs  tau(   1) = (  0.2500000  0.0834770  0.6701820  )
         2           Cs  tau(   2) = (  0.7500000  0.9165230  0.3298180  )
         3           Cs  tau(   3) = (  0.2500000  0.5834770  0.8298180  )
         4           Cs  tau(   4) = (  0.7500000  0.4165230  0.1701820  )
         5           Sn  tau(   5) = (  0.2500000  0.3418600  0.4389780  )
         6           Sn  tau(   6) = (  0.7500000  0.6581400  0.5610220  )
         7           Sn  tau(   7) = (  0.2500000  0.8418600  0.0610220  )
         8           Sn  tau(   8) = (  0.7500000  0.1581400  0.9389780  )
         9           I   tau(   9) = (  0.7500000  0.0261000  0.1119070  )
        10           I   tau(  10) = (  0.2500000  0.9739000  0.8880930  )
        11           I   tau(  11) = (  0.7500000  0.5261000  0.3880930  )
        12           I   tau(  12) = (  0.2500000  0.4739000  0.6119070  )
        13           I   tau(  13) = (  0.7500000  0.2931740  0.7918740  )
        14           I   tau(  14) = (  0.2500000  0.7068260  0.2081260  )
        15           I   tau(  15) = (  0.7500000  0.7931740  0.7081260  )
        16           I   tau(  16) = (  0.2500000  0.2068260  0.2918740  )
        17           I   tau(  17) = (  0.7500000  0.1684960  0.4988740  )
        18           I   tau(  18) = (  0.2500000  0.8315040  0.5011260  )
        19           I   tau(  19) = (  0.7500000  0.6684960  0.0011260  )
        20           I   tau(  20) = (  0.2500000  0.3315040  0.9988740  )

     number of k points=    64
                       cart. coord. in units 2pi/alat
        k(    1) = (   0.0000000   0.0000000   0.0000000), wk =   0.0092593
        k(    2) = (   0.0000000   0.0000000   0.0443803), wk =   0.0185185
        k(    3) = (   0.0000000   0.0000000   0.0887606), wk =   0.0185185
        k(    4) = (   0.0000000   0.0000000  -0.1331409), wk =   0.0092593
        k(    5) = (   0.0000000   0.0748147   0.0000000), wk =   0.0185185
        k(    6) = (   0.0000000   0.0748147   0.0443803), wk =   0.0370370
        k(    7) = (   0.0000000   0.0748147   0.0887606), wk =   0.0370370
        k(    8) = (   0.0000000   0.0748147  -0.1331409), wk =   0.0185185
        k(    9) = (   0.0000000   0.1496293   0.0000000), wk =   0.0185185
        k(   10) = (   0.0000000   0.1496293   0.0443803), wk =   0.0370370
        k(   11) = (   0.0000000   0.1496293   0.0887606), wk =   0.0370370
        k(   12) = (   0.0000000   0.1496293  -0.1331409), wk =   0.0185185
        k(   13) = (   0.0000000  -0.2244440   0.0000000), wk =   0.0092593
        k(   14) = (   0.0000000  -0.2244440   0.0443803), wk =   0.0185185
        k(   15) = (   0.0000000  -0.2244440   0.0887606), wk =   0.0185185
        k(   16) = (   0.0000000  -0.2244440  -0.1331409), wk =   0.0092593
        k(   17) = (   0.1666667   0.0000000   0.0000000), wk =   0.0185185
        k(   18) = (   0.1666667   0.0000000   0.0443803), wk =   0.0370370
        k(   19) = (   0.1666667   0.0000000   0.0887606), wk =   0.0370370
        k(   20) = (   0.1666667   0.0000000  -0.1331409), wk =   0.0185185
        k(   21) = (   0.1666667   0.0748147   0.0000000), wk =   0.0370370
        k(   22) = (   0.1666667   0.0748147   0.0443803), wk =   0.0740741
        k(   23) = (   0.1666667   0.0748147   0.0887606), wk =   0.0740741
        k(   24) = (   0.1666667   0.0748147  -0.1331409), wk =   0.0370370
        k(   25) = (   0.1666667   0.1496293   0.0000000), wk =   0.0370370
        k(   26) = (   0.1666667   0.1496293   0.0443803), wk =   0.0740741
        k(   27) = (   0.1666667   0.1496293   0.0887606), wk =   0.0740741
        k(   28) = (   0.1666667   0.1496293  -0.1331409), wk =   0.0370370
        k(   29) = (   0.1666667  -0.2244440   0.0000000), wk =   0.0185185
        k(   30) = (   0.1666667  -0.2244440   0.0443803), wk =   0.0370370
        k(   31) = (   0.1666667  -0.2244440   0.0887606), wk =   0.0370370
        k(   32) = (   0.1666667  -0.2244440  -0.1331409), wk =   0.0185185
        k(   33) = (   0.3333333   0.0000000   0.0000000), wk =   0.0185185
        k(   34) = (   0.3333333   0.0000000   0.0443803), wk =   0.0370370
        k(   35) = (   0.3333333   0.0000000   0.0887606), wk =   0.0370370
        k(   36) = (   0.3333333   0.0000000  -0.1331409), wk =   0.0185185
        k(   37) = (   0.3333333   0.0748147   0.0000000), wk =   0.0370370
        k(   38) = (   0.3333333   0.0748147   0.0443803), wk =   0.0740741
        k(   39) = (   0.3333333   0.0748147   0.0887606), wk =   0.0740741
        k(   40) = (   0.3333333   0.0748147  -0.1331409), wk =   0.0370370
        k(   41) = (   0.3333333   0.1496293   0.0000000), wk =   0.0370370
        k(   42) = (   0.3333333   0.1496293   0.0443803), wk =   0.0740741
        k(   43) = (   0.3333333   0.1496293   0.0887606), wk =   0.0740741
        k(   44) = (   0.3333333   0.1496293  -0.1331409), wk =   0.0370370
        k(   45) = (   0.3333333  -0.2244440   0.0000000), wk =   0.0185185
        k(   46) = (   0.3333333  -0.2244440   0.0443803), wk =   0.0370370
        k(   47) = (   0.3333333  -0.2244440   0.0887606), wk =   0.0370370
        k(   48) = (   0.3333333  -0.2244440  -0.1331409), wk =   0.0185185
        k(   49) = (  -0.5000000   0.0000000   0.0000000), wk =   0.0092593
        k(   50) = (  -0.5000000   0.0000000   0.0443803), wk =   0.0185185
        k(   51) = (  -0.5000000   0.0000000   0.0887606), wk =   0.0185185
        k(   52) = (  -0.5000000   0.0000000  -0.1331409), wk =   0.0092593
        k(   53) = (  -0.5000000   0.0748147   0.0000000), wk =   0.0185185
        k(   54) = (  -0.5000000   0.0748147   0.0443803), wk =   0.0370370
        k(   55) = (  -0.5000000   0.0748147   0.0887606), wk =   0.0370370
        k(   56) = (  -0.5000000   0.0748147  -0.1331409), wk =   0.0185185
        k(   57) = (  -0.5000000   0.1496293   0.0000000), wk =   0.0185185
        k(   58) = (  -0.5000000   0.1496293   0.0443803), wk =   0.0370370
        k(   59) = (  -0.5000000   0.1496293   0.0887606), wk =   0.0370370
        k(   60) = (  -0.5000000   0.1496293  -0.1331409), wk =   0.0185185
        k(   61) = (  -0.5000000  -0.2244440   0.0000000), wk =   0.0092593
        k(   62) = (  -0.5000000  -0.2244440   0.0443803), wk =   0.0185185
        k(   63) = (  -0.5000000  -0.2244440   0.0887606), wk =   0.0185185
        k(   64) = (  -0.5000000  -0.2244440  -0.1331409), wk =   0.0092593

                       cryst. coord.
        k(    1) = (   0.0000000   0.0000000   0.0000000), wk =   0.0092593
        k(    2) = (   0.0000000   0.0000000   0.1666667), wk =   0.0185185
        k(    3) = (   0.0000000   0.0000000   0.3333333), wk =   0.0185185
        k(    4) = (   0.0000000   0.0000000  -0.5000000), wk =   0.0092593
        k(    5) = (   0.0000000   0.1666667   0.0000000), wk =   0.0185185
        k(    6) = (   0.0000000   0.1666667   0.1666667), wk =   0.0370370
        k(    7) = (   0.0000000   0.1666667   0.3333333), wk =   0.0370370
        k(    8) = (   0.0000000   0.1666667  -0.5000000), wk =   0.0185185
        k(    9) = (   0.0000000   0.3333333   0.0000000), wk =   0.0185185
        k(   10) = (   0.0000000   0.3333333   0.1666667), wk =   0.0370370
        k(   11) = (   0.0000000   0.3333333   0.3333333), wk =   0.0370370
        k(   12) = (   0.0000000   0.3333333  -0.5000000), wk =   0.0185185
        k(   13) = (   0.0000000  -0.5000000   0.0000000), wk =   0.0092593
        k(   14) = (   0.0000000  -0.5000000   0.1666667), wk =   0.0185185
        k(   15) = (   0.0000000  -0.5000000   0.3333333), wk =   0.0185185
        k(   16) = (   0.0000000  -0.5000000  -0.5000000), wk =   0.0092593
        k(   17) = (   0.1666667   0.0000000   0.0000000), wk =   0.0185185
        k(   18) = (   0.1666667   0.0000000   0.1666667), wk =   0.0370370
        k(   19) = (   0.1666667   0.0000000   0.3333333), wk =   0.0370370
        k(   20) = (   0.1666667   0.0000000  -0.5000000), wk =   0.0185185
        k(   21) = (   0.1666667   0.1666667   0.0000000), wk =   0.0370370
        k(   22) = (   0.1666667   0.1666667   0.1666667), wk =   0.0740741
        k(   23) = (   0.1666667   0.1666667   0.3333333), wk =   0.0740741
        k(   24) = (   0.1666667   0.1666667  -0.5000000), wk =   0.0370370
        k(   25) = (   0.1666667   0.3333333   0.0000000), wk =   0.0370370
        k(   26) = (   0.1666667   0.3333333   0.1666667), wk =   0.0740741
        k(   27) = (   0.1666667   0.3333333   0.3333333), wk =   0.0740741
        k(   28) = (   0.1666667   0.3333333  -0.5000000), wk =   0.0370370
        k(   29) = (   0.1666667  -0.5000000   0.0000000), wk =   0.0185185
        k(   30) = (   0.1666667  -0.5000000   0.1666667), wk =   0.0370370
        k(   31) = (   0.1666667  -0.5000000   0.3333333), wk =   0.0370370
        k(   32) = (   0.1666667  -0.5000000  -0.5000000), wk =   0.0185185
        k(   33) = (   0.3333333   0.0000000   0.0000000), wk =   0.0185185
        k(   34) = (   0.3333333   0.0000000   0.1666667), wk =   0.0370370
        k(   35) = (   0.3333333   0.0000000   0.3333333), wk =   0.0370370
        k(   36) = (   0.3333333   0.0000000  -0.5000000), wk =   0.0185185
        k(   37) = (   0.3333333   0.1666667   0.0000000), wk =   0.0370370
        k(   38) = (   0.3333333   0.1666667   0.1666667), wk =   0.0740741
        k(   39) = (   0.3333333   0.1666667   0.3333333), wk =   0.0740741
        k(   40) = (   0.3333333   0.1666667  -0.5000000), wk =   0.0370370
        k(   41) = (   0.3333333   0.3333333   0.0000000), wk =   0.0370370
        k(   42) = (   0.3333333   0.3333333   0.1666667), wk =   0.0740741
        k(   43) = (   0.3333333   0.3333333   0.3333333), wk =   0.0740741
        k(   44) = (   0.3333333   0.3333333  -0.5000000), wk =   0.0370370
        k(   45) = (   0.3333333  -0.5000000   0.0000000), wk =   0.0185185
        k(   46) = (   0.3333333  -0.5000000   0.1666667), wk =   0.0370370
        k(   47) = (   0.3333333  -0.5000000   0.3333333), wk =   0.0370370
        k(   48) = (   0.3333333  -0.5000000  -0.5000000), wk =   0.0185185
        k(   49) = (  -0.5000000   0.0000000   0.0000000), wk =   0.0092593
        k(   50) = (  -0.5000000   0.0000000   0.1666667), wk =   0.0185185
        k(   51) = (  -0.5000000   0.0000000   0.3333333), wk =   0.0185185
        k(   52) = (  -0.5000000   0.0000000  -0.5000000), wk =   0.0092593
        k(   53) = (  -0.5000000   0.1666667   0.0000000), wk =   0.0185185
        k(   54) = (  -0.5000000   0.1666667   0.1666667), wk =   0.0370370
        k(   55) = (  -0.5000000   0.1666667   0.3333333), wk =   0.0370370
        k(   56) = (  -0.5000000   0.1666667  -0.5000000), wk =   0.0185185
        k(   57) = (  -0.5000000   0.3333333   0.0000000), wk =   0.0185185
        k(   58) = (  -0.5000000   0.3333333   0.1666667), wk =   0.0370370
        k(   59) = (  -0.5000000   0.3333333   0.3333333), wk =   0.0370370
        k(   60) = (  -0.5000000   0.3333333  -0.5000000), wk =   0.0185185
        k(   61) = (  -0.5000000  -0.5000000   0.0000000), wk =   0.0092593
        k(   62) = (  -0.5000000  -0.5000000   0.1666667), wk =   0.0185185
        k(   63) = (  -0.5000000  -0.5000000   0.3333333), wk =   0.0185185
        k(   64) = (  -0.5000000  -0.5000000  -0.5000000), wk =   0.0092593

     Dense  grid:   304449 G-vectors     FFT dimensions: (  48,  96, 160)

     Dynamical RAM for                 wfc:       1.61 MB

     Dynamical RAM for     wfc (w. buffer):     104.87 MB

     Dynamical RAM for           str. fact:       0.44 MB

     Dynamical RAM for           local pot:       0.00 MB

     Dynamical RAM for          nlocal pot:       7.61 MB

     Dynamical RAM for                qrad:      10.22 MB

     Dynamical RAM for          rho,v,vnew:       0.96 MB

     Dynamical RAM for               rhoin:       0.32 MB

     Dynamical RAM for            rho*nmix:       2.32 MB

     Dynamical RAM for           G-vectors:       0.62 MB

     Dynamical RAM for          h,s,v(r/c):       1.45 MB

     Dynamical RAM for          <psi|beta>:       0.57 MB

     Dynamical RAM for                 psi:       3.23 MB

     Dynamical RAM for                hpsi:       3.23 MB

     Dynamical RAM for                spsi:       3.23 MB

     Dynamical RAM for      wfcinit/wfcrot:       4.02 MB

     Dynamical RAM for           addusdens:      87.08 MB

     Dynamical RAM for          addusforce:      90.50 MB

     Dynamical RAM for         addusstress:      89.26 MB

     Estimated static dynamical RAM per process >     128.82 MB

     Estimated max dynamical RAM per process >     219.33 MB

     Estimated total dynamical RAM >       6.85 GB

     Check: negative core charge=   -0.000002

     Initial potential from superposition of free atoms

     starting charge  175.83511, renormalised to  176.00000
     Starting wfcs are  104 randomized atomic wfcs
     Checking if some PAW data can be deallocated... 
       PAW data deallocated on   24 nodes for type:  1
       PAW data deallocated on   16 nodes for type:  2
       PAW data deallocated on   24 nodes for type:  3

     total cpu time spent up to now is      139.4 secs

     Self-consistent Calculation

     iteration #  1     ecut=    50.00 Ry     beta= 0.70
     Davidson diagonalization with overlap
     ethr =  1.00E-02,  avg # of iterations =  2.0

     Threshold (ethr) on eigenvalues was too large:
     Diagonalizing with lowered threshold

     Davidson diagonalization with overlap
     ethr =  3.12E-04,  avg # of iterations =  4.0

     total cpu time spent up to now is      912.6 secs

     total energy              =   -7979.41705053 Ry
     estimated scf accuracy    <       0.44092741 Ry

     iteration #  2     ecut=    50.00 Ry     beta= 0.70
     Davidson diagonalization with overlap
     ethr =  2.51E-04,  avg # of iterations =  4.2

     total cpu time spent up to now is     1389.9 secs

     total energy              =   -7979.51234559 Ry
     estimated scf accuracy    <       0.54159584 Ry

     iteration #  3     ecut=    50.00 Ry     beta= 0.70
     Davidson diagonalization with overlap
     ethr =  2.51E-04,  avg # of iterations =  4.8

     total cpu time spent up to now is     1771.3 secs

     total energy              =   -7979.61164094 Ry
     estimated scf accuracy    <       0.01440919 Ry

     iteration #  4     ecut=    50.00 Ry     beta= 0.70
     Davidson diagonalization with overlap
     ethr =  8.19E-06,  avg # of iterations =  9.3

     total cpu time spent up to now is     2375.6 secs

     total energy              =   -7979.62625128 Ry
     estimated scf accuracy    <       0.00632865 Ry

     iteration #  5     ecut=    50.00 Ry     beta= 0.70
     Davidson diagonalization with overlap
     c_bands:  1 eigenvalues not converged
     ethr =  3.60E-06,  avg # of iterations =  3.8

     total cpu time spent up to now is     2739.2 secs

     total energy              =   -7979.62661108 Ry
     estimated scf accuracy    <       0.00124716 Ry

     iteration #  6     ecut=    50.00 Ry     beta= 0.70
     Davidson diagonalization with overlap
     ethr =  7.09E-07,  avg # of iterations =  5.5

     total cpu time spent up to now is     3224.7 secs

     total energy              =   -7979.62716594 Ry
     estimated scf accuracy    <       0.00019959 Ry

     iteration #  7     ecut=    50.00 Ry     beta= 0.70
     Davidson diagonalization with overlap
     ethr =  1.13E-07,  avg # of iterations =  4.4

     total cpu time spent up to now is     3612.6 secs

     total energy              =   -7979.62721774 Ry
     estimated scf accuracy    <       0.00001737 Ry

     iteration #  8     ecut=    50.00 Ry     beta= 0.70
     Davidson diagonalization with overlap
     ethr =  9.87E-09,  avg # of iterations =  5.5

     total cpu time spent up to now is     4136.3 secs

     total energy              =   -7979.62721424 Ry
     estimated scf accuracy    <       0.00002871 Ry

     iteration #  9     ecut=    50.00 Ry     beta= 0.70
     Davidson diagonalization with overlap
     ethr =  9.87E-09,  avg # of iterations =  5.1

     total cpu time spent up to now is     4605.5 secs

     total energy              =   -7979.62722396 Ry
     estimated scf accuracy    <       0.00001108 Ry

     iteration # 10     ecut=    50.00 Ry     beta= 0.70
     Davidson diagonalization with overlap
     ethr =  6.30E-09,  avg # of iterations =  2.0

     total cpu time spent up to now is     4921.8 secs

     total energy              =   -7979.62722284 Ry
     estimated scf accuracy    <       0.00000353 Ry

     iteration # 11     ecut=    50.00 Ry     beta= 0.70
     Davidson diagonalization with overlap
     ethr =  2.00E-09,  avg # of iterations =  5.4

     total cpu time spent up to now is     5394.0 secs

     End of self-consistent calculation

          k = 0.0000 0.0000 0.0000 ( 37989 PWs)   bands (ev):

   -17.8628 -17.8628 -17.8626 -17.8626 -17.8594 -17.8594 -17.8591 -17.8591
   -17.8506 -17.8506 -17.8499 -17.8499 -17.8460 -17.8460 -17.8445 -17.8445
   -17.8391 -17.8391 -17.8377 -17.8377 -17.7828 -17.7825 -17.7819 -17.7816
    -8.8072  -8.7830  -8.6008  -8.5394  -8.4522  -8.4428  -8.4237  -8.4135
    -8.2867  -8.2628  -8.2460  -8.2024  -4.6120  -4.6097  -4.6081  -4.6018
    -4.5923  -4.5665  -4.5510  -4.5493  -4.5428  -4.5412  -4.5371  -4.5340
    -2.8853  -2.8603  -2.8223  -2.7416   0.1216   0.3227   0.7506   0.8842
     0.8986   0.9833   1.1109   1.1200   1.2109   1.2735   1.3212   1.3262
     1.3289   1.5510   1.6284   1.7299   1.7770   1.7922   1.8068   1.8132
     1.8185   1.8321   1.9755   2.0594   2.0648   2.1696   2.2018   2.2193
     2.2307   2.2319   2.3104   2.3122   2.3769   2.4737   2.6222   2.9218
     5.3014

     occupation numbers 
     1.0000   1.0000   1.0000   1.0000   1.0000   1.0000   1.0000   1.0000
     1.0000   1.0000   1.0000   1.0000   1.0000   1.0000   1.0000   1.0000
     1.0000   1.0000   1.0000   1.0000   1.0000   1.0000   1.0000   1.0000
     1.0000   1.0000   1.0000   1.0000   1.0000   1.0000   1.0000   1.0000
     1.0000   1.0000   1.0000   1.0000   1.0000   1.0000   1.0000   1.0000
     1.0000   1.0000   1.0000   1.0000   1.0000   1.0000   1.0000   1.0000
     1.0000   1.0000   1.0000   1.0000   1.0000   1.0000   1.0000   1.0000
     1.0000   1.0000   1.0000   1.0000   1.0000   1.0000   1.0000   1.0000
     1.0000   1.0000   1.0000   1.0000   1.0000   1.0000   1.0000   1.0000
     1.0000   1.0000   1.0000   1.0000   1.0000   1.0000   1.0000   1.0000
     1.0000   1.0000   1.0000   1.0000   1.0000   1.0000   1.0000   1.0000
     0.0000

          k = 0.0000 0.0000 0.0444 ( 38053 PWs)   bands (ev):

   -17.8628 -17.8628 -17.8626 -17.8626 -17.8594 -17.8594 -17.8591 -17.8591
   -17.8506 -17.8506 -17.8499 -17.8499 -17.8460 -17.8460 -17.8445 -17.8445
   -17.8391 -17.8391 -17.8377 -17.8377 -17.7828 -17.7826 -17.7819 -17.7816
    -8.8059  -8.7850  -8.5966  -8.5438  -8.4517  -8.4435  -8.4226  -8.4138
    -8.2860  -8.2673  -8.2400  -8.2043  -4.6141  -4.6120  -4.6072  -4.5964
    -4.5931  -4.5681  -4.5509  -4.5494  -4.5427  -4.5413  -4.5367  -4.5340
    -2.8845  -2.8645  -2.8144  -2.7462   0.1327   0.3059   0.7617   0.8851
     0.8976   0.9528   1.1150   1.1437   1.2389   1.2510   1.2770   1.3226
     1.4114   1.5396   1.6132   1.6940   1.7758   1.8080   1.8081   1.8134
     1.8187   1.8307   1.9757   2.0367   2.0675   2.1623   2.2029   2.2199
     2.2240   2.2281   2.3183   2.3560   2.3735   2.4723   2.6354   2.9013
     5.3048

     occupation numbers 
     1.0000   1.0000   1.0000   1.0000   1.0000   1.0000   1.0000   1.0000
     1.0000   1.0000   1.0000   1.0000   1.0000   1.0000   1.0000   1.0000
     1.0000   1.0000   1.0000   1.0000   1.0000   1.0000   1.0000   1.0000
     1.0000   1.0000   1.0000   1.0000   1.0000   1.0000   1.0000   1.0000
     1.0000   1.0000   1.0000   1.0000   1.0000   1.0000   1.0000   1.0000
     1.0000   1.0000   1.0000   1.0000   1.0000   1.0000   1.0000   1.0000
     1.0000   1.0000   1.0000   1.0000   1.0000   1.0000   1.0000   1.0000
     1.0000   1.0000   1.0000   1.0000   1.0000   1.0000   1.0000   1.0000
     1.0000   1.0000   1.0000   1.0000   1.0000   1.0000   1.0000   1.0000
     1.0000   1.0000   1.0000   1.0000   1.0000   1.0000   1.0000   1.0000
     1.0000   1.0000   1.0000   1.0000   1.0000   1.0000   1.0000   1.0000
     0.0000

          k = 0.0000 0.0000 0.0888 ( 38019 PWs)   bands (ev):

   -17.8628 -17.8628 -17.8626 -17.8626 -17.8594 -17.8594 -17.8591 -17.8591
   -17.8506 -17.8506 -17.8499 -17.8499 -17.8460 -17.8460 -17.8445 -17.8445
   -17.8391 -17.8391 -17.8377 -17.8377 -17.7827 -17.7826 -17.7818 -17.7817
    -8.8020  -8.7901  -8.5856  -8.5553  -8.4500  -8.4452  -8.4199  -8.4151
    -8.2837  -8.2742  -8.2294  -8.2101  -4.6162  -4.6156  -4.6035  -4.5961
    -4.5876  -4.5726  -4.5507  -4.5498  -4.5424  -4.5416  -4.5357  -4.5342
    -2.8820  -2.8717  -2.7971  -2.7589   0.1643   0.2632   0.7930   0.8875
     0.8947   0.8966   1.1183   1.1728   1.2294   1.2846   1.2866   1.3128
     1.4966   1.5136   1.5724   1.6376   1.7782   1.8101   1.8110   1.8137
     1.8197   1.8270   1.9766   1.9976   2.0886   2.1422   2.2063   2.2201
     2.2212   2.2220   2.3327   2.3638   2.4199   2.4674   2.6826   2.8437
     5.3174

     occupation numbers 
     1.0000   1.0000   1.0000   1.0000   1.0000   1.0000   1.0000   1.0000
     1.0000   1.0000   1.0000   1.0000   1.0000   1.0000   1.0000   1.0000
     1.0000   1.0000   1.0000   1.0000   1.0000   1.0000   1.0000   1.0000
     1.0000   1.0000   1.0000   1.0000   1.0000   1.0000   1.0000   1.0000
     1.0000   1.0000   1.0000   1.0000   1.0000   1.0000   1.0000   1.0000
     1.0000   1.0000   1.0000   1.0000   1.0000   1.0000   1.0000   1.0000
     1.0000   1.0000   1.0000   1.0000   1.0000   1.0000   1.0000   1.0000
     1.0000   1.0000   1.0000   1.0000   1.0000   1.0000   1.0000   1.0000
     1.0000   1.0000   1.0000   1.0000   1.0000   1.0000   1.0000   1.0000
     1.0000   1.0000   1.0000   1.0000   1.0000   1.0000   1.0000   1.0000
     1.0000   1.0000   1.0000   1.0000   1.0000   1.0000   1.0000   1.0000
     0.0000

          k = 0.0000 0.0000-0.1331 ( 38058 PWs)   bands (ev):

   -17.8628 -17.8628 -17.8626 -17.8626 -17.8594 -17.8594 -17.8591 -17.8591
   -17.8506 -17.8506 -17.8499 -17.8499 -17.8460 -17.8460 -17.8445 -17.8445
   -17.8391 -17.8391 -17.8377 -17.8377 -17.7827 -17.7827 -17.7817 -17.7817
    -8.7963  -8.7963  -8.5705  -8.5705  -8.4476  -8.4476  -8.4172  -8.4172
    -8.2798  -8.2798  -8.2188  -8.2188  -4.6170  -4.6170  -4.5997  -4.5997
    -4.5794  -4.5794  -4.5503  -4.5503  -4.5420  -4.5420  -4.5348  -4.5348
    -2.8778  -2.8778  -2.7772  -2.7772   0.2111   0.2111   0.8401   0.8401
     0.8910   0.8910   1.1397   1.1397   1.2815   1.2815   1.2996   1.2996
     1.5181   1.5181   1.5785   1.5785   1.7921   1.7921   1.8133   1.8133
     1.8226   1.8226   1.9807   1.9807   2.1157   2.1157   2.2122   2.2122
     2.2220   2.2220   2.3493   2.3493   2.4543   2.4543   2.7619   2.7619
     5.3292

     occupation numbers 
     1.0000   1.0000   1.0000   1.0000   1.0000   1.0000   1.0000   1.0000
     1.0000   1.0000   1.0000   1.0000   1.0000   1.0000   1.0000   1.0000
     1.0000   1.0000   1.0000   1.0000   1.0000   1.0000   1.0000   1.0000
     1.0000   1.0000   1.0000   1.0000   1.0000   1.0000   1.0000   1.0000
     1.0000   1.0000   1.0000   1.0000   1.0000   1.0000   1.0000   1.0000
     1.0000   1.0000   1.0000   1.0000   1.0000   1.0000   1.0000   1.0000
     1.0000   1.0000   1.0000   1.0000   1.0000   1.0000   1.0000   1.0000
     1.0000   1.0000   1.0000   1.0000   1.0000   1.0000   1.0000   1.0000
     1.0000   1.0000   1.0000   1.0000   1.0000   1.0000   1.0000   1.0000
     1.0000   1.0000   1.0000   1.0000   1.0000   1.0000   1.0000   1.0000
     1.0000   1.0000   1.0000   1.0000   1.0000   1.0000   1.0000   1.0000
     0.0000

          k = 0.0000 0.0748 0.0000 ( 38054 PWs)   bands (ev):

   -17.8628 -17.8628 -17.8626 -17.8626 -17.8594 -17.8594 -17.8591 -17.8591
   -17.8506 -17.8506 -17.8499 -17.8499 -17.8460 -17.8460 -17.8445 -17.8445
   -17.8391 -17.8391 -17.8377 -17.8377 -17.7827 -17.7825 -17.7819 -17.7817
    -8.8012  -8.7792  -8.6038  -8.5611  -8.4695  -8.4596  -8.4118  -8.3779
    -8.2780  -8.2641  -8.2473  -8.2057  -4.6150  -4.6143  -4.5997  -4.5992
    -4.5950  -4.5640  -4.5505  -4.5488  -4.5434  -4.5424  -4.5418  -4.5375
    -2.8929  -2.8676  -2.8050  -2.7386   0.1392   0.3204   0.7670   0.8958
     0.9087   0.9207   1.1205   1.1318   1.2495   1.2542   1.2945   1.3225
     1.3501   1.5639   1.5831   1.6785   1.7493   1.7641   1.7823   1.8401
     1.8687   1.8897   1.9645   2.0636   2.0741   2.0849   2.1875   2.2174
     2.2327   2.2354   2.3040   2.3449   2.3686   2.5621   2.6093   2.9526
     5.2329

     occupation numbers 
     1.0000   1.0000   1.0000   1.0000   1.0000   1.0000   1.0000   1.0000
     1.0000   1.0000   1.0000   1.0000   1.0000   1.0000   1.0000   1.0000
     1.0000   1.0000   1.0000   1.0000   1.0000   1.0000   1.0000   1.0000
     1.0000   1.0000   1.0000   1.0000   1.0000   1.0000   1.0000   1.0000
     1.0000   1.0000   1.0000   1.0000   1.0000   1.0000   1.0000   1.0000
     1.0000   1.0000   1.0000   1.0000   1.0000   1.0000   1.0000   1.0000
     1.0000   1.0000   1.0000   1.0000   1.0000   1.0000   1.0000   1.0000
     1.0000   1.0000   1.0000   1.0000   1.0000   1.0000   1.0000   1.0000
     1.0000   1.0000   1.0000   1.0000   1.0000   1.0000   1.0000   1.0000
     1.0000   1.0000   1.0000   1.0000   1.0000   1.0000   1.0000   1.0000
     1.0000   1.0000   1.0000   1.0000   1.0000   1.0000   1.0000   1.0000
     0.0000

          k = 0.0000 0.0748 0.0444 ( 38040 PWs)   bands (ev):

   -17.8628 -17.8628 -17.8626 -17.8626 -17.8594 -17.8594 -17.8591 -17.8591
   -17.8506 -17.8506 -17.8499 -17.8499 -17.8460 -17.8460 -17.8445 -17.8445
   -17.8391 -17.8391 -17.8377 -17.8377 -17.7827 -17.7825 -17.7819 -17.7817
    -8.8000  -8.7810  -8.6005  -8.5635  -8.4697  -8.4614  -8.4087  -8.3796
    -8.2780  -8.2670  -8.2421  -8.2077  -4.6166  -4.6125  -4.6054  -4.5963
    -4.5915  -4.5655  -4.5504  -4.5489  -4.5432  -4.5419  -4.5418  -4.5376
    -2.8916  -2.8702  -2.7996  -2.7427   0.1495   0.3058   0.7758   0.8966
     0.9078   0.9086   1.1216   1.1468   1.2335   1.2569   1.2919   1.2985
     1.4084   1.5491   1.5818   1.6778   1.7446   1.7651   1.7808   1.8265
     1.8704   1.8886   1.9649   2.0197   2.0787   2.1189   2.1927   2.2176
     2.2317   2.2325   2.3101   2.3609   2.3652   2.5349   2.6475   2.9332
     5.2383

     occupation numbers 
     1.0000   1.0000   1.0000   1.0000   1.0000   1.0000   1.0000   1.0000
     1.0000   1.0000   1.0000   1.0000   1.0000   1.0000   1.0000   1.0000
     1.0000   1.0000   1.0000   1.0000   1.0000   1.0000   1.0000   1.0000
     1.0000   1.0000   1.0000   1.0000   1.0000   1.0000   1.0000   1.0000
     1.0000   1.0000   1.0000   1.0000   1.0000   1.0000   1.0000   1.0000
     1.0000   1.0000   1.0000   1.0000   1.0000   1.0000   1.0000   1.0000
     1.0000   1.0000   1.0000   1.0000   1.0000   1.0000   1.0000   1.0000
     1.0000   1.0000   1.0000   1.0000   1.0000   1.0000   1.0000   1.0000
     1.0000   1.0000   1.0000   1.0000   1.0000   1.0000   1.0000   1.0000
     1.0000   1.0000   1.0000   1.0000   1.0000   1.0000   1.0000   1.0000
     1.0000   1.0000   1.0000   1.0000   1.0000   1.0000   1.0000   1.0000
     0.0000

          k = 0.0000 0.0748 0.0888 ( 38040 PWs)   bands (ev):

   -17.8628 -17.8628 -17.8626 -17.8626 -17.8594 -17.8594 -17.8591 -17.8591
   -17.8506 -17.8506 -17.8499 -17.8499 -17.8460 -17.8460 -17.8445 -17.8445
   -17.8391 -17.8391 -17.8377 -17.8377 -17.7827 -17.7826 -17.7819 -17.7817
    -8.7965  -8.7856  -8.5919  -8.5705  -8.4697  -8.4651  -8.4012  -8.3846
    -8.2774  -8.2714  -8.2321  -8.2132  -4.6172  -4.6135  -4.6060  -4.5990
    -4.5834  -4.5696  -4.5501  -4.5493  -4.5429  -4.5421  -4.5404  -4.5380
    -2.8881  -2.8762  -2.7862  -2.7539   0.1787   0.2683   0.8008   0.8771
     0.8988   0.9053   1.1280   1.1780   1.2034   1.2644   1.2845   1.2953
     1.4669   1.5342   1.5835   1.6656   1.7380   1.7679   1.7769   1.7922
     1.8748   1.8854   1.9663   1.9850   2.0933   2.1255   2.2076   2.2187
     2.2267   2.2281   2.3245   2.3555   2.4018   2.4946   2.7181   2.8789
     5.2518

     occupation numbers 
     1.0000   1.0000   1.0000   1.0000   1.0000   1.0000   1.0000   1.0000
     1.0000   1.0000   1.0000   1.0000   1.0000   1.0000   1.0000   1.0000
     1.0000   1.0000   1.0000   1.0000   1.0000   1.0000   1.0000   1.0000
     1.0000   1.0000   1.0000   1.0000   1.0000   1.0000   1.0000   1.0000
     1.0000   1.0000   1.0000   1.0000   1.0000   1.0000   1.0000   1.0000
     1.0000   1.0000   1.0000   1.0000   1.0000   1.0000   1.0000   1.0000
     1.0000   1.0000   1.0000   1.0000   1.0000   1.0000   1.0000   1.0000
     1.0000   1.0000   1.0000   1.0000   1.0000   1.0000   1.0000   1.0000
     1.0000   1.0000   1.0000   1.0000   1.0000   1.0000   1.0000   1.0000
     1.0000   1.0000   1.0000   1.0000   1.0000   1.0000   1.0000   1.0000
     1.0000   1.0000   1.0000   1.0000   1.0000   1.0000   1.0000   1.0000
     0.0000

          k = 0.0000 0.0748-0.1331 ( 38046 PWs)   bands (ev):

   -17.8628 -17.8628 -17.8626 -17.8626 -17.8594 -17.8594 -17.8591 -17.8591
   -17.8506 -17.8506 -17.8499 -17.8499 -17.8460 -17.8460 -17.8445 -17.8445
   -17.8391 -17.8391 -17.8377 -17.8377 -17.7826 -17.7826 -17.7818 -17.7818
    -8.7913  -8.7913  -8.5808  -8.5808  -8.4683  -8.4683  -8.3924  -8.3924
    -8.2751  -8.2751  -8.2218  -8.2218  -4.6161  -4.6161  -4.6027  -4.6027
    -4.5758  -4.5758  -4.5497  -4.5497  -4.5425  -4.5425  -4.5390  -4.5390
    -2.8827  -2.8827  -2.7696  -2.7696   0.2215   0.2215   0.8374   0.8374
     0.9020   0.9020   1.1487   1.1487   1.2551   1.2551   1.2745   1.2745
     1.5081   1.5081   1.6239   1.6239   1.7555   1.7555   1.7722   1.7722
     1.8804   1.8804   1.9707   1.9707   2.1116   2.1116   2.2205   2.2205
     2.2217   2.2217   2.3410   2.3410   2.4499   2.4499   2.8012   2.8012
     5.2604

     occupation numbers 
     1.0000   1.0000   1.0000   1.0000   1.0000   1.0000   1.0000   1.0000
     1.0000   1.0000   1.0000   1.0000   1.0000   1.0000   1.0000   1.0000
     1.0000   1.0000   1.0000   1.0000   1.0000   1.0000   1.0000   1.0000
     1.0000   1.0000   1.0000   1.0000   1.0000   1.0000   1.0000   1.0000
     1.0000   1.0000   1.0000   1.0000   1.0000   1.0000   1.0000   1.0000
     1.0000   1.0000   1.0000   1.0000   1.0000   1.0000   1.0000   1.0000
     1.0000   1.0000   1.0000   1.0000   1.0000   1.0000   1.0000   1.0000
     1.0000   1.0000   1.0000   1.0000   1.0000   1.0000   1.0000   1.0000
     1.0000   1.0000   1.0000   1.0000   1.0000   1.0000   1.0000   1.0000
     1.0000   1.0000   1.0000   1.0000   1.0000   1.0000   1.0000   1.0000
     1.0000   1.0000   1.0000   1.0000   1.0000   1.0000   1.0000   1.0000
     0.0000

          k = 0.0000 0.1496 0.0000 ( 38068 PWs)   bands (ev):

   -17.8628 -17.8628 -17.8626 -17.8626 -17.8594 -17.8594 -17.8591 -17.8591
   -17.8506 -17.8506 -17.8499 -17.8499 -17.8460 -17.8460 -17.8445 -17.8445
   -17.8391 -17.8391 -17.8377 -17.8377 -17.7826 -17.7823 -17.7821 -17.7819
    -8.7864  -8.7721  -8.6120  -8.5966  -8.4864  -8.4848  -8.3753  -8.3520
    -8.2656  -8.2610  -8.2486  -8.2159  -4.6179  -4.6175  -4.5985  -4.5975
    -4.5862  -4.5594  -4.5554  -4.5490  -4.5473  -4.5459  -4.5449  -4.5433
    -2.8993  -2.8825  -2.7739  -2.7376   0.1876   0.3011   0.7977   0.8428
     0.9241   0.9321   1.1334   1.1968   1.2129   1.2314   1.2527   1.3426
     1.4141   1.4605   1.5122   1.6843   1.7390   1.7563   1.7655   1.7675
     1.9294   1.9454   1.9513   2.0470   2.0557   2.0851   2.2104   2.2344
     2.2393   2.2618   2.2825   2.3443   2.3675   2.4578   2.8024   2.9786
     5.1574

     occupation numbers 
     1.0000   1.0000   1.0000   1.0000   1.0000   1.0000   1.0000   1.0000
     1.0000   1.0000   1.0000   1.0000   1.0000   1.0000   1.0000   1.0000
     1.0000   1.0000   1.0000   1.0000   1.0000   1.0000   1.0000   1.0000
     1.0000   1.0000   1.0000   1.0000   1.0000   1.0000   1.0000   1.0000
     1.0000   1.0000   1.0000   1.0000   1.0000   1.0000   1.0000   1.0000
     1.0000   1.0000   1.0000   1.0000   1.0000   1.0000   1.0000   1.0000
     1.0000   1.0000   1.0000   1.0000   1.0000   1.0000   1.0000   1.0000
     1.0000   1.0000   1.0000   1.0000   1.0000   1.0000   1.0000   1.0000
     1.0000   1.0000   1.0000   1.0000   1.0000   1.0000   1.0000   1.0000
     1.0000   1.0000   1.0000   1.0000   1.0000   1.0000   1.0000   1.0000
     1.0000   1.0000   1.0000   1.0000   1.0000   1.0000   1.0000   1.0000
     0.0000

          k = 0.0000 0.1496 0.0444 ( 38068 PWs)   bands (ev):

   -17.8628 -17.8628 -17.8626 -17.8626 -17.8594 -17.8594 -17.8591 -17.8591
   -17.8506 -17.8506 -17.8499 -17.8499 -17.8460 -17.8460 -17.8445 -17.8445
   -17.8391 -17.8391 -17.8377 -17.8377 -17.7825 -17.7823 -17.7821 -17.7819
    -8.7856  -8.7732  -8.6107  -8.5974  -8.4868  -8.4843  -8.3747  -8.3542
    -8.2672  -8.2578  -8.2471  -8.2177  -4.6181  -4.6163  -4.6008  -4.5996
    -4.5823  -4.5614  -4.5536  -4.5489  -4.5475  -4.5462  -4.5447  -4.5433
    -2.8981  -2.8836  -2.7716  -2.7401   0.1950   0.2935   0.7999   0.8400
     0.9246   0.9315   1.1417   1.1944   1.2142   1.2302   1.2528   1.3144
     1.4289   1.4773   1.5056   1.6796   1.7380   1.7402   1.7552   1.7993
     1.9299   1.9441   1.9516   2.0234   2.0698   2.0934   2.2099   2.2322
     2.2397   2.2598   2.2881   2.3410   2.3762   2.4555   2.8106   2.9646
     5.1601

     occupation numbers 
     1.0000   1.0000   1.0000   1.0000   1.0000   1.0000   1.0000   1.0000
     1.0000   1.0000   1.0000   1.0000   1.0000   1.0000   1.0000   1.0000
     1.0000   1.0000   1.0000   1.0000   1.0000   1.0000   1.0000   1.0000
     1.0000   1.0000   1.0000   1.0000   1.0000   1.0000   1.0000   1.0000
     1.0000   1.0000   1.0000   1.0000   1.0000   1.0000   1.0000   1.0000
     1.0000   1.0000   1.0000   1.0000   1.0000   1.0000   1.0000   1.0000
     1.0000   1.0000   1.0000   1.0000   1.0000   1.0000   1.0000   1.0000
     1.0000   1.0000   1.0000   1.0000   1.0000   1.0000   1.0000   1.0000
     1.0000   1.0000   1.0000   1.0000   1.0000   1.0000   1.0000   1.0000
     1.0000   1.0000   1.0000   1.0000   1.0000   1.0000   1.0000   1.0000
     1.0000   1.0000   1.0000   1.0000   1.0000   1.0000   1.0000   1.0000
     0.0000

          k = 0.0000 0.1496 0.0888 ( 38062 PWs)   bands (ev):

   -17.8628 -17.8628 -17.8626 -17.8626 -17.8594 -17.8594 -17.8591 -17.8591
   -17.8506 -17.8506 -17.8499 -17.8499 -17.8460 -17.8460 -17.8445 -17.8445
   -17.8391 -17.8391 -17.8377 -17.8377 -17.7825 -17.7824 -17.7820 -17.7819
    -8.7832  -8.7761  -8.6073  -8.5997  -8.4867  -8.4844  -8.3720  -8.3599
    -8.2660  -8.2583  -8.2400  -8.2229  -4.6172  -4.6148  -4.6050  -4.6024
    -4.5758  -4.5650  -4.5509  -4.5487  -4.5479  -4.5470  -4.5443  -4.5436
    -2.8949  -2.8865  -2.7653  -2.7471   0.2156   0.2726   0.8071   0.8315
     0.9260   0.9300   1.1644   1.1912   1.2177   1.2269   1.2453   1.2781
     1.4315   1.4841   1.5354   1.6451   1.7434   1.7522   1.7538   1.8078
     1.9319   1.9404   1.9560   1.9936   2.0839   2.1021   2.2116   2.2262
     2.2423   2.2545   2.3017   2.3316   2.3986   2.4456   2.8368   2.9274
     5.1667

     occupation numbers 
     1.0000   1.0000   1.0000   1.0000   1.0000   1.0000   1.0000   1.0000
     1.0000   1.0000   1.0000   1.0000   1.0000   1.0000   1.0000   1.0000
     1.0000   1.0000   1.0000   1.0000   1.0000   1.0000   1.0000   1.0000
     1.0000   1.0000   1.0000   1.0000   1.0000   1.0000   1.0000   1.0000
     1.0000   1.0000   1.0000   1.0000   1.0000   1.0000   1.0000   1.0000
     1.0000   1.0000   1.0000   1.0000   1.0000   1.0000   1.0000   1.0000
     1.0000   1.0000   1.0000   1.0000   1.0000   1.0000   1.0000   1.0000
     1.0000   1.0000   1.0000   1.0000   1.0000   1.0000   1.0000   1.0000
     1.0000   1.0000   1.0000   1.0000   1.0000   1.0000   1.0000   1.0000
     1.0000   1.0000   1.0000   1.0000   1.0000   1.0000   1.0000   1.0000
     1.0000   1.0000   1.0000   1.0000   1.0000   1.0000   1.0000   1.0000
     0.0000

          k = 0.0000 0.1496-0.1331 ( 38042 PWs)   bands (ev):

   -17.8628 -17.8628 -17.8626 -17.8626 -17.8594 -17.8594 -17.8591 -17.8591
   -17.8506 -17.8506 -17.8499 -17.8499 -17.8460 -17.8460 -17.8445 -17.8445
   -17.8391 -17.8391 -17.8377 -17.8377 -17.7825 -17.7825 -17.7820 -17.7820
    -8.7798  -8.7798  -8.6032  -8.6032  -8.4856  -8.4856  -8.3667  -8.3667
    -8.2622  -8.2622  -8.2308  -8.2308  -4.6154  -4.6154  -4.6052  -4.6052
    -4.5699  -4.5699  -4.5486  -4.5486  -4.5483  -4.5483  -4.5439  -4.5439
    -2.8906  -2.8906  -2.7563  -2.7563   0.2440   0.2440   0.8189   0.8189
     0.9280   0.9280   1.1864   1.1864   1.2223   1.2223   1.2476   1.2476
     1.4536   1.4536   1.5946   1.5946   1.7479   1.7479   1.7873   1.7873
     1.9357   1.9357   1.9697   1.9697   2.0973   2.0973   2.2183   2.2183
     2.2479   2.2479   2.3175   2.3175   2.4251   2.4251   2.8794   2.8794
     5.1736

     occupation numbers 
     1.0000   1.0000   1.0000   1.0000   1.0000   1.0000   1.0000   1.0000
     1.0000   1.0000   1.0000   1.0000   1.0000   1.0000   1.0000   1.0000
     1.0000   1.0000   1.0000   1.0000   1.0000   1.0000   1.0000   1.0000
     1.0000   1.0000   1.0000   1.0000   1.0000   1.0000   1.0000   1.0000
     1.0000   1.0000   1.0000   1.0000   1.0000   1.0000   1.0000   1.0000
     1.0000   1.0000   1.0000   1.0000   1.0000   1.0000   1.0000   1.0000
     1.0000   1.0000   1.0000   1.0000   1.0000   1.0000   1.0000   1.0000
     1.0000   1.0000   1.0000   1.0000   1.0000   1.0000   1.0000   1.0000
     1.0000   1.0000   1.0000   1.0000   1.0000   1.0000   1.0000   1.0000
     1.0000   1.0000   1.0000   1.0000   1.0000   1.0000   1.0000   1.0000
     1.0000   1.0000   1.0000   1.0000   1.0000   1.0000   1.0000   1.0000
     0.0000

          k = 0.0000-0.2244 0.0000 ( 38074 PWs)   bands (ev):

   -17.8628 -17.8628 -17.8626 -17.8626 -17.8594 -17.8594 -17.8591 -17.8591
   -17.8506 -17.8506 -17.8499 -17.8499 -17.8460 -17.8460 -17.8445 -17.8445
   -17.8391 -17.8391 -17.8377 -17.8377 -17.7823 -17.7823 -17.7821 -17.7821
    -8.7729  -8.7729  -8.6152  -8.6152  -8.4931  -8.4931  -8.3518  -8.3518
    -8.2621  -8.2621  -8.2325  -8.2325  -4.6188  -4.6188  -4.5980  -4.5980
    -4.5711  -4.5711  -4.5540  -4.5540  -4.5469  -4.5469  -4.5453  -4.5453
    -2.8952  -2.8952  -2.7488  -2.7488   0.2508   0.2508   0.8136   0.8136
     0.9442   0.9442   1.1839   1.1839   1.1939   1.1939   1.3123   1.3123
     1.4109   1.4109   1.5543   1.5543   1.7390   1.7390   1.7796   1.7796
     1.9619   1.9619   2.0061   2.0061   2.0646   2.0646   2.2296   2.2296
     2.2575   2.2575   2.3065   2.3065   2.3938   2.3938   2.9342   2.9342
     5.1355

     occupation numbers 
     1.0000   1.0000   1.0000   1.0000   1.0000   1.0000   1.0000   1.0000
     1.0000   1.0000   1.0000   1.0000   1.0000   1.0000   1.0000   1.0000
     1.0000   1.0000   1.0000   1.0000   1.0000   1.0000   1.0000   1.0000
     1.0000   1.0000   1.0000   1.0000   1.0000   1.0000   1.0000   1.0000
     1.0000   1.0000   1.0000   1.0000   1.0000   1.0000   1.0000   1.0000
     1.0000   1.0000   1.0000   1.0000   1.0000   1.0000   1.0000   1.0000
     1.0000   1.0000   1.0000   1.0000   1.0000   1.0000   1.0000   1.0000
     1.0000   1.0000   1.0000   1.0000   1.0000   1.0000   1.0000   1.0000
     1.0000   1.0000   1.0000   1.0000   1.0000   1.0000   1.0000   1.0000
     1.0000   1.0000   1.0000   1.0000   1.0000   1.0000   1.0000   1.0000
     1.0000   1.0000   1.0000   1.0000   1.0000   1.0000   1.0000   1.0000
     0.0000

          k = 0.0000-0.2244 0.0444 ( 38066 PWs)   bands (ev):

   -17.8628 -17.8628 -17.8626 -17.8626 -17.8594 -17.8594 -17.8591 -17.8591
   -17.8506 -17.8506 -17.8499 -17.8499 -17.8460 -17.8460 -17.8445 -17.8445
   -17.8391 -17.8391 -17.8377 -17.8377 -17.7823 -17.7823 -17.7821 -17.7821
    -8.7729  -8.7729  -8.6153  -8.6153  -8.4925  -8.4925  -8.3533  -8.3533
    -8.2596  -8.2596  -8.2341  -8.2341  -4.6182  -4.6182  -4.5997  -4.5997
    -4.5698  -4.5698  -4.5542  -4.5542  -4.5469  -4.5469  -4.5453  -4.5453
    -2.8949  -2.8949  -2.7492  -2.7492   0.2521   0.2521   0.8111   0.8111
     0.9442   0.9442   1.1901   1.1901   1.1939   1.1939   1.3091   1.3091
     1.3996   1.3996   1.5565   1.5565   1.7394   1.7394   1.7899   1.7899
     1.9608   1.9608   2.0039   2.0039   2.0671   2.0671   2.2262   2.2262
     2.2611   2.2611   2.3036   2.3036   2.3973   2.3973   2.9301   2.9301
     5.1352

     occupation numbers 
     1.0000   1.0000   1.0000   1.0000   1.0000   1.0000   1.0000   1.0000
     1.0000   1.0000   1.0000   1.0000   1.0000   1.0000   1.0000   1.0000
     1.0000   1.0000   1.0000   1.0000   1.0000   1.0000   1.0000   1.0000
     1.0000   1.0000   1.0000   1.0000   1.0000   1.0000   1.0000   1.0000
     1.0000   1.0000   1.0000   1.0000   1.0000   1.0000   1.0000   1.0000
     1.0000   1.0000   1.0000   1.0000   1.0000   1.0000   1.0000   1.0000
     1.0000   1.0000   1.0000   1.0000   1.0000   1.0000   1.0000   1.0000
     1.0000   1.0000   1.0000   1.0000   1.0000   1.0000   1.0000   1.0000
     1.0000   1.0000   1.0000   1.0000   1.0000   1.0000   1.0000   1.0000
     1.0000   1.0000   1.0000   1.0000   1.0000   1.0000   1.0000   1.0000
     1.0000   1.0000   1.0000   1.0000   1.0000   1.0000   1.0000   1.0000
     0.0000

          k = 0.0000-0.2244 0.0888 ( 38058 PWs)   bands (ev):

   -17.8628 -17.8628 -17.8626 -17.8626 -17.8594 -17.8594 -17.8591 -17.8591
   -17.8506 -17.8506 -17.8499 -17.8499 -17.8460 -17.8460 -17.8445 -17.8445
   -17.8391 -17.8391 -17.8377 -17.8377 -17.7823 -17.7823 -17.7821 -17.7821
    -8.7730  -8.7730  -8.6154  -8.6154  -8.4914  -8.4914  -8.3562  -8.3562
    -8.2531  -8.2531  -8.2385  -8.2385  -4.6168  -4.6168  -4.6030  -4.6030
    -4.5674  -4.5674  -4.5546  -4.5546  -4.5469  -4.5469  -4.5453  -4.5453
    -2.8942  -2.8942  -2.7499  -2.7499   0.2549   0.2549   0.8061   0.8061
     0.9442   0.9442   1.1940   1.1940   1.2031   1.2031   1.3069   1.3069
     1.3728   1.3728   1.5613   1.5613   1.7400   1.7400   1.8107   1.8107
     1.9587   1.9587   1.9969   1.9969   2.0741   2.0741   2.2192   2.2192
     2.2707   2.2707   2.2954   2.2954   2.4043   2.4043   2.9218   2.9218
     5.1346

     occupation numbers 
     1.0000   1.0000   1.0000   1.0000   1.0000   1.0000   1.0000   1.0000
     1.0000   1.0000   1.0000   1.0000   1.0000   1.0000   1.0000   1.0000
     1.0000   1.0000   1.0000   1.0000   1.0000   1.0000   1.0000   1.0000
     1.0000   1.0000   1.0000   1.0000   1.0000   1.0000   1.0000   1.0000
     1.0000   1.0000   1.0000   1.0000   1.0000   1.0000   1.0000   1.0000
     1.0000   1.0000   1.0000   1.0000   1.0000   1.0000   1.0000   1.0000
     1.0000   1.0000   1.0000   1.0000   1.0000   1.0000   1.0000   1.0000
     1.0000   1.0000   1.0000   1.0000   1.0000   1.0000   1.0000   1.0000
     1.0000   1.0000   1.0000   1.0000   1.0000   1.0000   1.0000   1.0000
     1.0000   1.0000   1.0000   1.0000   1.0000   1.0000   1.0000   1.0000
     1.0000   1.0000   1.0000   1.0000   1.0000   1.0000   1.0000   1.0000
     0.0000

          k = 0.0000-0.2244-0.1331 ( 38084 PWs)   bands (ev):

   -17.8628 -17.8628 -17.8626 -17.8626 -17.8594 -17.8594 -17.8591 -17.8591
   -17.8506 -17.8506 -17.8499 -17.8499 -17.8460 -17.8460 -17.8445 -17.8445
   -17.8391 -17.8391 -17.8377 -17.8377 -17.7823 -17.7823 -17.7821 -17.7821
    -8.7730  -8.7730  -8.6155  -8.6155  -8.4909  -8.4909  -8.3576  -8.3576
    -8.2466  -8.2466  -8.2442  -8.2442  -4.6159  -4.6159  -4.6048  -4.6048
    -4.5663  -4.5663  -4.5549  -4.5549  -4.5469  -4.5469  -4.5453  -4.5453
    -2.8939  -2.8939  -2.7503  -2.7503   0.2564   0.2564   0.8036   0.8036
     0.9442   0.9442   1.1940   1.1940   1.2098   1.2098   1.3106   1.3106
     1.3547   1.3547   1.5639   1.5639   1.7403   1.7403   1.8214   1.8214
     1.9577   1.9577   1.9920   1.9920   2.0785   2.0785   2.2155   2.2155
     2.2814   2.2814   2.2854   2.2854   2.4079   2.4079   2.9175   2.9175
     5.1343

     occupation numbers 
     1.0000   1.0000   1.0000   1.0000   1.0000   1.0000   1.0000   1.0000
     1.0000   1.0000   1.0000   1.0000   1.0000   1.0000   1.0000   1.0000
     1.0000   1.0000   1.0000   1.0000   1.0000   1.0000   1.0000   1.0000
     1.0000   1.0000   1.0000   1.0000   1.0000   1.0000   1.0000   1.0000
     1.0000   1.0000   1.0000   1.0000   1.0000   1.0000   1.0000   1.0000
     1.0000   1.0000   1.0000   1.0000   1.0000   1.0000   1.0000   1.0000
     1.0000   1.0000   1.0000   1.0000   1.0000   1.0000   1.0000   1.0000
     1.0000   1.0000   1.0000   1.0000   1.0000   1.0000   1.0000   1.0000
     1.0000   1.0000   1.0000   1.0000   1.0000   1.0000   1.0000   1.0000
     1.0000   1.0000   1.0000   1.0000   1.0000   1.0000   1.0000   1.0000
     1.0000   1.0000   1.0000   1.0000   1.0000   1.0000   1.0000   1.0000
     0.0000

          k = 0.1667 0.0000 0.0000 ( 37997 PWs)   bands (ev):

   -17.8625 -17.8625 -17.8623 -17.8623 -17.8602 -17.8602 -17.8599 -17.8599
   -17.8505 -17.8505 -17.8499 -17.8499 -17.8452 -17.8452 -17.8439 -17.8439
   -17.8391 -17.8391 -17.8379 -17.8379 -17.7799 -17.7797 -17.7791 -17.7789
    -8.7532  -8.7305  -8.5653  -8.5113  -8.4251  -8.4151  -8.3975  -8.3875
    -8.2766  -8.2628  -8.2427  -8.2174  -4.6150  -4.6122  -4.6122  -4.6072
    -4.5991  -4.5908  -4.5896  -4.5856  -4.5843  -4.5689  -4.5480  -4.5470
    -2.9663  -2.9573  -2.8803  -2.8307   0.2238   0.3959   0.6192   0.6365
     0.6704   0.7566   0.8811   1.0250   1.0687   1.0714   1.0993   1.1226
     1.3766   1.4276   1.4351   1.4647   1.6651   1.7449   1.7932   1.8241
     1.8705   1.9613   1.9756   2.0042   2.0326   2.0625   2.0795   2.1028
     2.1355   2.1844   2.3256   2.3267   2.7081   2.7260   2.8589   3.0492
     5.6671

     occupation numbers 
     1.0000   1.0000   1.0000   1.0000   1.0000   1.0000   1.0000   1.0000
     1.0000   1.0000   1.0000   1.0000   1.0000   1.0000   1.0000   1.0000
     1.0000   1.0000   1.0000   1.0000   1.0000   1.0000   1.0000   1.0000
     1.0000   1.0000   1.0000   1.0000   1.0000   1.0000   1.0000   1.0000
     1.0000   1.0000   1.0000   1.0000   1.0000   1.0000   1.0000   1.0000
     1.0000   1.0000   1.0000   1.0000   1.0000   1.0000   1.0000   1.0000
     1.0000   1.0000   1.0000   1.0000   1.0000   1.0000   1.0000   1.0000
     1.0000   1.0000   1.0000   1.0000   1.0000   1.0000   1.0000   1.0000
     1.0000   1.0000   1.0000   1.0000   1.0000   1.0000   1.0000   1.0000
     1.0000   1.0000   1.0000   1.0000   1.0000   1.0000   1.0000   1.0000
     1.0000   1.0000   1.0000   1.0000   1.0000   1.0000   1.0000   1.0000
     0.0000

          k = 0.1667 0.0000 0.0444 ( 37992 PWs)   bands (ev):

   -17.8625 -17.8625 -17.8623 -17.8623 -17.8602 -17.8602 -17.8599 -17.8599
   -17.8505 -17.8505 -17.8499 -17.8499 -17.8452 -17.8452 -17.8439 -17.8439
   -17.8391 -17.8391 -17.8379 -17.8379 -17.7799 -17.7797 -17.7791 -17.7789
    -8.7519  -8.7324  -8.5616  -8.5150  -8.4245  -8.4158  -8.3965  -8.3880
    -8.2759  -8.2643  -8.2403  -8.2188  -4.6149  -4.6130  -4.6111  -4.6066
    -4.6004  -4.5935  -4.5891  -4.5852  -4.5820  -4.5694  -4.5478  -4.5469
    -2.9660  -2.9584  -2.8765  -2.8337   0.2320   0.3776   0.6315   0.6434
     0.6710   0.7433   0.8991   1.0202   1.0655   1.0693   1.0991   1.1201
     1.3714   1.3829   1.4382   1.5256   1.6864   1.7390   1.7396   1.7951
     1.9240   1.9560   1.9689   1.9977   2.0355   2.0610   2.0899   2.0979
     2.1418   2.1953   2.3239   2.3251   2.7069   2.7231   2.8715   3.0360
     5.6762

     occupation numbers 
     1.0000   1.0000   1.0000   1.0000   1.0000   1.0000   1.0000   1.0000
     1.0000   1.0000   1.0000   1.0000   1.0000   1.0000   1.0000   1.0000
     1.0000   1.0000   1.0000   1.0000   1.0000   1.0000   1.0000   1.0000
     1.0000   1.0000   1.0000   1.0000   1.0000   1.0000   1.0000   1.0000
     1.0000   1.0000   1.0000   1.0000   1.0000   1.0000   1.0000   1.0000
     1.0000   1.0000   1.0000   1.0000   1.0000   1.0000   1.0000   1.0000
     1.0000   1.0000   1.0000   1.0000   1.0000   1.0000   1.0000   1.0000
     1.0000   1.0000   1.0000   1.0000   1.0000   1.0000   1.0000   1.0000
     1.0000   1.0000   1.0000   1.0000   1.0000   1.0000   1.0000   1.0000
     1.0000   1.0000   1.0000   1.0000   1.0000   1.0000   1.0000   1.0000
     1.0000   1.0000   1.0000   1.0000   1.0000   1.0000   1.0000   1.0000
     0.0000

          k = 0.1667 0.0000 0.0888 ( 38048 PWs)   bands (ev):

   -17.8625 -17.8625 -17.8623 -17.8623 -17.8602 -17.8602 -17.8600 -17.8600
   -17.8505 -17.8505 -17.8499 -17.8499 -17.8452 -17.8452 -17.8439 -17.8439
   -17.8391 -17.8391 -17.8379 -17.8379 -17.7799 -17.7798 -17.7790 -17.7789
    -8.7483  -8.7371  -8.5517  -8.5250  -8.4227  -8.4177  -8.3943  -8.3895
    -8.2739  -8.2675  -8.2347  -8.2226  -4.6146  -4.6136  -4.6094  -4.6052
    -4.6028  -4.5976  -4.5881  -4.5860  -4.5776  -4.5709  -4.5472  -4.5468
    -2.9650  -2.9608  -2.8667  -2.8422   0.2558   0.3367   0.6535   0.6620
     0.6718   0.7167   0.9370   1.0044   1.0586   1.0629   1.1010   1.1137
     1.3497   1.3545   1.4681   1.5909   1.6466   1.7184   1.7323   1.7917
     1.9347   1.9481   1.9646   1.9872   2.0410   2.0554   2.0963   2.1015
     2.1707   2.2095   2.3196   2.3209   2.7059   2.7161   2.9056   3.0004
     5.6991

     occupation numbers 
     1.0000   1.0000   1.0000   1.0000   1.0000   1.0000   1.0000   1.0000
     1.0000   1.0000   1.0000   1.0000   1.0000   1.0000   1.0000   1.0000
     1.0000   1.0000   1.0000   1.0000   1.0000   1.0000   1.0000   1.0000
     1.0000   1.0000   1.0000   1.0000   1.0000   1.0000   1.0000   1.0000
     1.0000   1.0000   1.0000   1.0000   1.0000   1.0000   1.0000   1.0000
     1.0000   1.0000   1.0000   1.0000   1.0000   1.0000   1.0000   1.0000
     1.0000   1.0000   1.0000   1.0000   1.0000   1.0000   1.0000   1.0000
     1.0000   1.0000   1.0000   1.0000   1.0000   1.0000   1.0000   1.0000
     1.0000   1.0000   1.0000   1.0000   1.0000   1.0000   1.0000   1.0000
     1.0000   1.0000   1.0000   1.0000   1.0000   1.0000   1.0000   1.0000
     1.0000   1.0000   1.0000   1.0000   1.0000   1.0000   1.0000   1.0000
     0.0000

          k = 0.1667 0.0000-0.1331 ( 38054 PWs)   bands (ev):

   -17.8625 -17.8625 -17.8623 -17.8623 -17.8602 -17.8602 -17.8600 -17.8600
   -17.8505 -17.8505 -17.8499 -17.8499 -17.8452 -17.8452 -17.8439 -17.8439
   -17.8391 -17.8391 -17.8379 -17.8379 -17.7798 -17.7798 -17.7790 -17.7790
    -8.7430  -8.7430  -8.5384  -8.5384  -8.4202  -8.4202  -8.3917  -8.3917
    -8.2709  -8.2709  -8.2283  -8.2283  -4.6142  -4.6142  -4.6070  -4.6070
    -4.6012  -4.6012  -4.5870  -4.5870  -4.5737  -4.5737  -4.5468  -4.5468
    -2.9633  -2.9633  -2.8542  -2.8542   0.2925   0.2925   0.6674   0.6674
     0.6885   0.6885   0.9758   0.9758   1.0569   1.0569   1.1063   1.1063
     1.3424   1.3424   1.5319   1.5319   1.6782   1.6782   1.7730   1.7730
     1.9305   1.9305   1.9782   1.9782   2.0477   2.0477   2.1003   2.1003
     2.2031   2.2031   2.3175   2.3175   2.7091   2.7091   2.9525   2.9525
     5.7224

     occupation numbers 
     1.0000   1.0000   1.0000   1.0000   1.0000   1.0000   1.0000   1.0000
     1.0000   1.0000   1.0000   1.0000   1.0000   1.0000   1.0000   1.0000
     1.0000   1.0000   1.0000   1.0000   1.0000   1.0000   1.0000   1.0000
     1.0000   1.0000   1.0000   1.0000   1.0000   1.0000   1.0000   1.0000
     1.0000   1.0000   1.0000   1.0000   1.0000   1.0000   1.0000   1.0000
     1.0000   1.0000   1.0000   1.0000   1.0000   1.0000   1.0000   1.0000
     1.0000   1.0000   1.0000   1.0000   1.0000   1.0000   1.0000   1.0000
     1.0000   1.0000   1.0000   1.0000   1.0000   1.0000   1.0000   1.0000
     1.0000   1.0000   1.0000   1.0000   1.0000   1.0000   1.0000   1.0000
     1.0000   1.0000   1.0000   1.0000   1.0000   1.0000   1.0000   1.0000
     1.0000   1.0000   1.0000   1.0000   1.0000   1.0000   1.0000   1.0000
     0.0000

          k = 0.1667 0.0748 0.0000 ( 38025 PWs)   bands (ev):

   -17.8625 -17.8625 -17.8623 -17.8623 -17.8602 -17.8602 -17.8600 -17.8599
   -17.8505 -17.8505 -17.8499 -17.8499 -17.8452 -17.8452 -17.8439 -17.8439
   -17.8391 -17.8391 -17.8379 -17.8379 -17.7799 -17.7796 -17.7791 -17.7789
    -8.7477  -8.7271  -8.5677  -8.5287  -8.4427  -8.4295  -8.3867  -8.3566
    -8.2704  -8.2634  -8.2440  -8.2195  -4.6156  -4.6125  -4.6125  -4.6070
    -4.6000  -4.5978  -4.5902  -4.5880  -4.5768  -4.5655  -4.5498  -4.5485
    -2.9656  -2.9574  -2.8745  -2.8319   0.2394   0.3769   0.5559   0.6049
     0.6939   0.7856   0.8939   0.9685   1.0429   1.0794   1.1356   1.1799
     1.4219   1.4319   1.4385   1.5455   1.6458   1.7360   1.7888   1.8205
     1.8632   1.9572   1.9799   1.9799   1.9883   2.0641   2.0881   2.1174
     2.1326   2.2010   2.3093   2.3227   2.6824   2.7015   2.8774   3.0198
     5.6876

     occupation numbers 
     1.0000   1.0000   1.0000   1.0000   1.0000   1.0000   1.0000   1.0000
     1.0000   1.0000   1.0000   1.0000   1.0000   1.0000   1.0000   1.0000
     1.0000   1.0000   1.0000   1.0000   1.0000   1.0000   1.0000   1.0000
     1.0000   1.0000   1.0000   1.0000   1.0000   1.0000   1.0000   1.0000
     1.0000   1.0000   1.0000   1.0000   1.0000   1.0000   1.0000   1.0000
     1.0000   1.0000   1.0000   1.0000   1.0000   1.0000   1.0000   1.0000
     1.0000   1.0000   1.0000   1.0000   1.0000   1.0000   1.0000   1.0000
     1.0000   1.0000   1.0000   1.0000   1.0000   1.0000   1.0000   1.0000
     1.0000   1.0000   1.0000   1.0000   1.0000   1.0000   1.0000   1.0000
     1.0000   1.0000   1.0000   1.0000   1.0000   1.0000   1.0000   1.0000
     1.0000   1.0000   1.0000   1.0000   1.0000   1.0000   1.0000   1.0000
     0.0000

          k = 0.1667 0.0748 0.0444 ( 38035 PWs)   bands (ev):

   -17.8625 -17.8625 -17.8623 -17.8623 -17.8602 -17.8602 -17.8600 -17.8599
   -17.8505 -17.8505 -17.8499 -17.8499 -17.8452 -17.8452 -17.8439 -17.8439
   -17.8391 -17.8391 -17.8379 -17.8379 -17.7798 -17.7797 -17.7791 -17.7789
    -8.7466  -8.7288  -8.5648  -8.5310  -8.4425  -8.4313  -8.3840  -8.3582
    -8.2704  -8.2639  -8.2418  -8.2208  -4.6155  -4.6134  -4.6114  -4.6064
    -4.6018  -4.5977  -4.5906  -4.5881  -4.5755  -4.5659  -4.5495  -4.5484
    -2.9653  -2.9582  -2.8714  -2.8346   0.2468   0.3648   0.5635   0.6095
     0.6913   0.7682   0.9103   0.9724   1.0403   1.0789   1.1395   1.1765
     1.4019   1.4187   1.4448   1.5727   1.6591   1.7173   1.7621   1.8158
     1.9029   1.9443   1.9563   1.9848   2.0116   2.0629   2.0927   2.1115
     2.1350   2.2069   2.3078   2.3222   2.6828   2.7018   2.8837   3.0081
     5.6924

     occupation numbers 
     1.0000   1.0000   1.0000   1.0000   1.0000   1.0000   1.0000   1.0000
     1.0000   1.0000   1.0000   1.0000   1.0000   1.0000   1.0000   1.0000
     1.0000   1.0000   1.0000   1.0000   1.0000   1.0000   1.0000   1.0000
     1.0000   1.0000   1.0000   1.0000   1.0000   1.0000   1.0000   1.0000
     1.0000   1.0000   1.0000   1.0000   1.0000   1.0000   1.0000   1.0000
     1.0000   1.0000   1.0000   1.0000   1.0000   1.0000   1.0000   1.0000
     1.0000   1.0000   1.0000   1.0000   1.0000   1.0000   1.0000   1.0000
     1.0000   1.0000   1.0000   1.0000   1.0000   1.0000   1.0000   1.0000
     1.0000   1.0000   1.0000   1.0000   1.0000   1.0000   1.0000   1.0000
     1.0000   1.0000   1.0000   1.0000   1.0000   1.0000   1.0000   1.0000
     1.0000   1.0000   1.0000   1.0000   1.0000   1.0000   1.0000   1.0000
     0.0000

          k = 0.1667 0.0748 0.0888 ( 38030 PWs)   bands (ev):

   -17.8625 -17.8625 -17.8623 -17.8623 -17.8602 -17.8602 -17.8600 -17.8599
   -17.8505 -17.8505 -17.8499 -17.8499 -17.8452 -17.8452 -17.8439 -17.8439
   -17.8391 -17.8391 -17.8379 -17.8379 -17.7798 -17.7797 -17.7791 -17.7790
    -8.7433  -8.7331  -8.5570  -8.5375  -8.4415  -8.4353  -8.3775  -8.3628
    -8.2696  -8.2654  -8.2365  -8.2246  -4.6153  -4.6142  -4.6098  -4.6047
    -4.6046  -4.5994  -4.5903  -4.5887  -4.5727  -4.5673  -4.5489  -4.5483
    -2.9642  -2.9602  -2.8632  -2.8420   0.2678   0.3348   0.5838   0.6159
     0.6885   0.7334   0.9415   0.9765   1.0412   1.0727   1.1481   1.1678
     1.3781   1.3898   1.4713   1.5743   1.6807   1.7208   1.7539   1.7959
     1.9149   1.9220   1.9560   1.9829   2.0359   2.0581   2.1035   2.1068
     2.1500   2.2062   2.3081   2.3195   2.6862   2.6997   2.9042   2.9772
     5.7037

     occupation numbers 
     1.0000   1.0000   1.0000   1.0000   1.0000   1.0000   1.0000   1.0000
     1.0000   1.0000   1.0000   1.0000   1.0000   1.0000   1.0000   1.0000
     1.0000   1.0000   1.0000   1.0000   1.0000   1.0000   1.0000   1.0000
     1.0000   1.0000   1.0000   1.0000   1.0000   1.0000   1.0000   1.0000
     1.0000   1.0000   1.0000   1.0000   1.0000   1.0000   1.0000   1.0000
     1.0000   1.0000   1.0000   1.0000   1.0000   1.0000   1.0000   1.0000
     1.0000   1.0000   1.0000   1.0000   1.0000   1.0000   1.0000   1.0000
     1.0000   1.0000   1.0000   1.0000   1.0000   1.0000   1.0000   1.0000
     1.0000   1.0000   1.0000   1.0000   1.0000   1.0000   1.0000   1.0000
     1.0000   1.0000   1.0000   1.0000   1.0000   1.0000   1.0000   1.0000
     1.0000   1.0000   1.0000   1.0000   1.0000   1.0000   1.0000   1.0000
     0.0000

          k = 0.1667 0.0748-0.1331 ( 38018 PWs)   bands (ev):

   -17.8625 -17.8625 -17.8623 -17.8623 -17.8602 -17.8602 -17.8599 -17.8599
   -17.8505 -17.8505 -17.8499 -17.8499 -17.8452 -17.8452 -17.8439 -17.8439
   -17.8391 -17.8391 -17.8379 -17.8379 -17.7798 -17.7798 -17.7790 -17.7790
    -8.7384  -8.7384  -8.5469  -8.5469  -8.4391  -8.4391  -8.3697  -8.3697
    -8.2677  -8.2677  -8.2301  -8.2301  -4.6148  -4.6148  -4.6076  -4.6076
    -4.6021  -4.6021  -4.5895  -4.5895  -4.5696  -4.5696  -4.5484  -4.5484
    -2.9624  -2.9624  -2.8525  -2.8525   0.2992   0.2992   0.6067   0.6067
     0.7018   0.7018   0.9668   0.9668   1.0562   1.0562   1.1578   1.1578
     1.3731   1.3731   1.5180   1.5180   1.7273   1.7273   1.7612   1.7612
     1.9078   1.9078   1.9731   1.9731   2.0498   2.0498   2.1069   2.1069
     2.1828   2.1828   2.3138   2.3138   2.6932   2.6932   2.9382   2.9382
     5.7161

     occupation numbers 
     1.0000   1.0000   1.0000   1.0000   1.0000   1.0000   1.0000   1.0000
     1.0000   1.0000   1.0000   1.0000   1.0000   1.0000   1.0000   1.0000
     1.0000   1.0000   1.0000   1.0000   1.0000   1.0000   1.0000   1.0000
     1.0000   1.0000   1.0000   1.0000   1.0000   1.0000   1.0000   1.0000
     1.0000   1.0000   1.0000   1.0000   1.0000   1.0000   1.0000   1.0000
     1.0000   1.0000   1.0000   1.0000   1.0000   1.0000   1.0000   1.0000
     1.0000   1.0000   1.0000   1.0000   1.0000   1.0000   1.0000   1.0000
     1.0000   1.0000   1.0000   1.0000   1.0000   1.0000   1.0000   1.0000
     1.0000   1.0000   1.0000   1.0000   1.0000   1.0000   1.0000   1.0000
     1.0000   1.0000   1.0000   1.0000   1.0000   1.0000   1.0000   1.0000
     1.0000   1.0000   1.0000   1.0000   1.0000   1.0000   1.0000   1.0000
     0.0000

          k = 0.1667 0.1496 0.0000 ( 38048 PWs)   bands (ev):

   -17.8625 -17.8625 -17.8623 -17.8623 -17.8602 -17.8602 -17.8600 -17.8599
   -17.8505 -17.8505 -17.8499 -17.8499 -17.8452 -17.8452 -17.8439 -17.8439
   -17.8391 -17.8391 -17.8379 -17.8379 -17.7797 -17.7795 -17.7793 -17.7791
    -8.7342  -8.7208  -8.5744  -8.5594  -8.4563  -8.4546  -8.3548  -8.3345
    -8.2631  -8.2582  -8.2459  -8.2259  -4.6163  -4.6130  -4.6129  -4.6096
    -4.6040  -4.6025  -4.5901  -4.5893  -4.5683  -4.5603  -4.5545  -4.5520
    -2.9634  -2.9582  -2.8609  -2.8366   0.2766   0.3403   0.5010   0.5604
     0.6845   0.7406   0.9149   0.9473   1.0480   1.1172   1.1960   1.2479
     1.4700   1.4800   1.4934   1.5719   1.6585   1.6928   1.7809   1.7994
     1.9026   1.9038   1.9407   1.9796   1.9859   2.0657   2.1068   2.1372
     2.1504   2.1918   2.2540   2.2843   2.6453   2.6869   2.8906   2.9541
     5.7305

     occupation numbers 
     1.0000   1.0000   1.0000   1.0000   1.0000   1.0000   1.0000   1.0000
     1.0000   1.0000   1.0000   1.0000   1.0000   1.0000   1.0000   1.0000
     1.0000   1.0000   1.0000   1.0000   1.0000   1.0000   1.0000   1.0000
     1.0000   1.0000   1.0000   1.0000   1.0000   1.0000   1.0000   1.0000
     1.0000   1.0000   1.0000   1.0000   1.0000   1.0000   1.0000   1.0000
     1.0000   1.0000   1.0000   1.0000   1.0000   1.0000   1.0000   1.0000
     1.0000   1.0000   1.0000   1.0000   1.0000   1.0000   1.0000   1.0000
     1.0000   1.0000   1.0000   1.0000   1.0000   1.0000   1.0000   1.0000
     1.0000   1.0000   1.0000   1.0000   1.0000   1.0000   1.0000   1.0000
     1.0000   1.0000   1.0000   1.0000   1.0000   1.0000   1.0000   1.0000
     1.0000   1.0000   1.0000   1.0000   1.0000   1.0000   1.0000   1.0000
     0.0000

          k = 0.1667 0.1496 0.0444 ( 38057 PWs)   bands (ev):

   -17.8625 -17.8625 -17.8623 -17.8623 -17.8602 -17.8602 -17.8600 -17.8600
   -17.8505 -17.8505 -17.8499 -17.8499 -17.8452 -17.8452 -17.8439 -17.8439
   -17.8391 -17.8391 -17.8379 -17.8379 -17.7797 -17.7795 -17.7793 -17.7791
    -8.7334  -8.7218  -8.5731  -8.5602  -8.4566  -8.4543  -8.3542  -8.3364
    -8.2632  -8.2563  -8.2453  -8.2271  -4.6162  -4.6136  -4.6123  -4.6095
    -4.6045  -4.6026  -4.5902  -4.5895  -4.5675  -4.5606  -4.5541  -4.5520
    -2.9630  -2.9585  -2.8594  -2.8383   0.2822   0.3397   0.4988   0.5571
     0.6836   0.7447   0.9176   0.9498   1.0333   1.1097   1.2030   1.2459
     1.4562   1.4764   1.5239   1.5696   1.6593   1.6888   1.7779   1.8146
     1.8815   1.9067   1.9423   1.9818   1.9991   2.0635   2.1087   2.1370
     2.1435   2.1906   2.2568   2.2836   2.6497   2.6866   2.8904   2.9461
     5.7308

     occupation numbers 
     1.0000   1.0000   1.0000   1.0000   1.0000   1.0000   1.0000   1.0000
     1.0000   1.0000   1.0000   1.0000   1.0000   1.0000   1.0000   1.0000
     1.0000   1.0000   1.0000   1.0000   1.0000   1.0000   1.0000   1.0000
     1.0000   1.0000   1.0000   1.0000   1.0000   1.0000   1.0000   1.0000
     1.0000   1.0000   1.0000   1.0000   1.0000   1.0000   1.0000   1.0000
     1.0000   1.0000   1.0000   1.0000   1.0000   1.0000   1.0000   1.0000
     1.0000   1.0000   1.0000   1.0000   1.0000   1.0000   1.0000   1.0000
     1.0000   1.0000   1.0000   1.0000   1.0000   1.0000   1.0000   1.0000
     1.0000   1.0000   1.0000   1.0000   1.0000   1.0000   1.0000   1.0000
     1.0000   1.0000   1.0000   1.0000   1.0000   1.0000   1.0000   1.0000
     1.0000   1.0000   1.0000   1.0000   1.0000   1.0000   1.0000   1.0000
     0.0000

          k = 0.1667 0.1496 0.0888 ( 38044 PWs)   bands (ev):

   -17.8625 -17.8625 -17.8623 -17.8623 -17.8602 -17.8602 -17.8600 -17.8599
   -17.8505 -17.8505 -17.8499 -17.8499 -17.8452 -17.8452 -17.8439 -17.8439
   -17.8391 -17.8391 -17.8379 -17.8379 -17.7797 -17.7796 -17.7792 -17.7791
    -8.7312  -8.7245  -8.5700  -8.5625  -8.4564  -8.4545  -8.3517  -8.3413
    -8.2616  -8.2559  -8.2418  -8.2307  -4.6159  -4.6145  -4.6114  -4.6096
    -4.6051  -4.6034  -4.5904  -4.5899  -4.5656  -4.5617  -4.5532  -4.5520
    -2.9620  -2.9593  -2.8551  -2.8430   0.2975   0.3334   0.5017   0.5420
     0.6937   0.7401   0.9299   0.9534   1.0177   1.0782   1.2167   1.2398
     1.4598   1.4903   1.5294   1.5549   1.6778   1.6984   1.7707   1.8192
     1.8593   1.8981   1.9569   1.9824   2.0238   2.0569   2.1151   2.1313
     2.1413   2.1765   2.2655   2.2807   2.6610   2.6835   2.8935   2.9266
     5.7340

     occupation numbers 
     1.0000   1.0000   1.0000   1.0000   1.0000   1.0000   1.0000   1.0000
     1.0000   1.0000   1.0000   1.0000   1.0000   1.0000   1.0000   1.0000
     1.0000   1.0000   1.0000   1.0000   1.0000   1.0000   1.0000   1.0000
     1.0000   1.0000   1.0000   1.0000   1.0000   1.0000   1.0000   1.0000
     1.0000   1.0000   1.0000   1.0000   1.0000   1.0000   1.0000   1.0000
     1.0000   1.0000   1.0000   1.0000   1.0000   1.0000   1.0000   1.0000
     1.0000   1.0000   1.0000   1.0000   1.0000   1.0000   1.0000   1.0000
     1.0000   1.0000   1.0000   1.0000   1.0000   1.0000   1.0000   1.0000
     1.0000   1.0000   1.0000   1.0000   1.0000   1.0000   1.0000   1.0000
     1.0000   1.0000   1.0000   1.0000   1.0000   1.0000   1.0000   1.0000
     1.0000   1.0000   1.0000   1.0000   1.0000   1.0000   1.0000   1.0000
     0.0000

          k = 0.1667 0.1496-0.1331 ( 38042 PWs)   bands (ev):

   -17.8625 -17.8625 -17.8623 -17.8623 -17.8602 -17.8602 -17.8600 -17.8600
   -17.8505 -17.8505 -17.8499 -17.8499 -17.8452 -17.8452 -17.8439 -17.8439
   -17.8391 -17.8391 -17.8379 -17.8379 -17.7796 -17.7796 -17.7792 -17.7792
    -8.7280  -8.7280  -8.5660  -8.5660  -8.4554  -8.4554  -8.3471  -8.3471
    -8.2585  -8.2585  -8.2360  -8.2360  -4.6153  -4.6153  -4.6104  -4.6104
    -4.6046  -4.6046  -4.5903  -4.5903  -4.5634  -4.5634  -4.5524  -4.5524
    -2.9606  -2.9606  -2.8491  -2.8491   0.3174   0.3174   0.5187   0.5187
     0.7179   0.7179   0.9466   0.9466   1.0360   1.0360   1.2298   1.2298
     1.4853   1.4853   1.5313   1.5313   1.7044   1.7044   1.7805   1.7805
     1.8783   1.8783   1.9742   1.9742   2.0448   2.0448   2.1239   2.1239
     2.1540   2.1540   2.2748   2.2748   2.6744   2.6744   2.9058   2.9058
     5.7364

     occupation numbers 
     1.0000   1.0000   1.0000   1.0000   1.0000   1.0000   1.0000   1.0000
     1.0000   1.0000   1.0000   1.0000   1.0000   1.0000   1.0000   1.0000
     1.0000   1.0000   1.0000   1.0000   1.0000   1.0000   1.0000   1.0000
     1.0000   1.0000   1.0000   1.0000   1.0000   1.0000   1.0000   1.0000
     1.0000   1.0000   1.0000   1.0000   1.0000   1.0000   1.0000   1.0000
     1.0000   1.0000   1.0000   1.0000   1.0000   1.0000   1.0000   1.0000
     1.0000   1.0000   1.0000   1.0000   1.0000   1.0000   1.0000   1.0000
     1.0000   1.0000   1.0000   1.0000   1.0000   1.0000   1.0000   1.0000
     1.0000   1.0000   1.0000   1.0000   1.0000   1.0000   1.0000   1.0000
     1.0000   1.0000   1.0000   1.0000   1.0000   1.0000   1.0000   1.0000
     1.0000   1.0000   1.0000   1.0000   1.0000   1.0000   1.0000   1.0000
     0.0000

          k = 0.1667-0.2244 0.0000 ( 38078 PWs)   bands (ev):

   -17.8625 -17.8625 -17.8623 -17.8623 -17.8602 -17.8602 -17.8600 -17.8600
   -17.8505 -17.8505 -17.8499 -17.8499 -17.8452 -17.8452 -17.8439 -17.8439
   -17.8391 -17.8391 -17.8379 -17.8379 -17.7795 -17.7795 -17.7793 -17.7793
    -8.7218  -8.7218  -8.5763  -8.5763  -8.4623  -8.4623  -8.3347  -8.3347
    -8.2587  -8.2587  -8.2367  -8.2367  -4.6152  -4.6152  -4.6122  -4.6122
    -4.6048  -4.6048  -4.5893  -4.5893  -4.5610  -4.5610  -4.5559  -4.5559
    -2.9604  -2.9604  -2.8466  -2.8466   0.3101   0.3101   0.5125   0.5125
     0.6859   0.6859   0.9320   0.9320   1.1071   1.1071   1.2507   1.2507
     1.4944   1.4944   1.5498   1.5498   1.6723   1.6723   1.7638   1.7638
     1.9040   1.9040   1.9746   1.9746   2.0259   2.0259   2.1428   2.1428
     2.1711   2.1711   2.2181   2.2181   2.6638   2.6638   2.9042   2.9042
     5.7504

     occupation numbers 
     1.0000   1.0000   1.0000   1.0000   1.0000   1.0000   1.0000   1.0000
     1.0000   1.0000   1.0000   1.0000   1.0000   1.0000   1.0000   1.0000
     1.0000   1.0000   1.0000   1.0000   1.0000   1.0000   1.0000   1.0000
     1.0000   1.0000   1.0000   1.0000   1.0000   1.0000   1.0000   1.0000
     1.0000   1.0000   1.0000   1.0000   1.0000   1.0000   1.0000   1.0000
     1.0000   1.0000   1.0000   1.0000   1.0000   1.0000   1.0000   1.0000
     1.0000   1.0000   1.0000   1.0000   1.0000   1.0000   1.0000   1.0000
     1.0000   1.0000   1.0000   1.0000   1.0000   1.0000   1.0000   1.0000
     1.0000   1.0000   1.0000   1.0000   1.0000   1.0000   1.0000   1.0000
     1.0000   1.0000   1.0000   1.0000   1.0000   1.0000   1.0000   1.0000
     1.0000   1.0000   1.0000   1.0000   1.0000   1.0000   1.0000   1.0000
     0.0000

          k = 0.1667-0.2244 0.0444 ( 38070 PWs)   bands (ev):

   -17.8625 -17.8625 -17.8623 -17.8623 -17.8602 -17.8602 -17.8600 -17.8600
   -17.8505 -17.8505 -17.8499 -17.8499 -17.8452 -17.8452 -17.8439 -17.8439
   -17.8391 -17.8391 -17.8379 -17.8379 -17.7795 -17.7795 -17.7793 -17.7793
    -8.7218  -8.7218  -8.5764  -8.5764  -8.4619  -8.4619  -8.3358  -8.3358
    -8.2568  -8.2568  -8.2378  -8.2378  -4.6150  -4.6150  -4.6125  -4.6125
    -4.6050  -4.6050  -4.5895  -4.5895  -4.5605  -4.5605  -4.5560  -4.5560
    -2.9602  -2.9602  -2.8468  -2.8468   0.3148   0.3148   0.5038   0.5038
     0.6957   0.6957   0.9332   0.9332   1.0834   1.0834   1.2537   1.2537
     1.5101   1.5101   1.5617   1.5617   1.6680   1.6680   1.7548   1.7548
     1.9038   1.9038   1.9797   1.9797   2.0247   2.0247   2.1405   2.1405
     2.1675   2.1675   2.2212   2.2212   2.6658   2.6658   2.9001   2.9001
[...]

          k =-0.5000-0.2244-0.1331 ( 38056 PWs)   bands (ev):

   -17.8628 -17.8628 -17.8628 -17.8628 -17.8614 -17.8614 -17.8614 -17.8614
   -17.8502 -17.8502 -17.8502 -17.8502 -17.8423 -17.8423 -17.8423 -17.8423
   -17.8390 -17.8390 -17.8390 -17.8390 -17.7709 -17.7709 -17.7709 -17.7709
    -8.4869  -8.4869  -8.4869  -8.4869  -8.3121  -8.3121  -8.3121  -8.3121
    -8.2832  -8.2832  -8.2832  -8.2832  -4.7552  -4.7552  -4.7552  -4.7552
    -4.5974  -4.5974  -4.5974  -4.5974  -4.5675  -4.5675  -4.5675  -4.5675
    -3.1841  -3.1841  -3.1841  -3.1841   0.2127   0.2127   0.2127   0.2127
     0.4367   0.4367   0.4367   0.4367   0.8669   0.8669   0.8669   0.8669
     1.3684   1.3684   1.3684   1.3684   1.7066   1.7066   1.7066   1.7066
     1.7985   1.7985   1.7985   1.7985   1.9421   1.9421   1.9421   1.9421
     2.1104   2.1104   2.1104   2.1104   2.8808   2.8808   2.8808   2.8808
     6.1185

     occupation numbers 
     1.0000   1.0000   1.0000   1.0000   1.0000   1.0000   1.0000   1.0000
     1.0000   1.0000   1.0000   1.0000   1.0000   1.0000   1.0000   1.0000
     1.0000   1.0000   1.0000   1.0000   1.0000   1.0000   1.0000   1.0000
     1.0000   1.0000   1.0000   1.0000   1.0000   1.0000   1.0000   1.0000
     1.0000   1.0000   1.0000   1.0000   1.0000   1.0000   1.0000   1.0000
     1.0000   1.0000   1.0000   1.0000   1.0000   1.0000   1.0000   1.0000
     1.0000   1.0000   1.0000   1.0000   1.0000   1.0000   1.0000   1.0000
     1.0000   1.0000   1.0000   1.0000   1.0000   1.0000   1.0000   1.0000
     1.0000   1.0000   1.0000   1.0000   1.0000   1.0000   1.0000   1.0000
     1.0000   1.0000   1.0000   1.0000   1.0000   1.0000   1.0000   1.0000
     1.0000   1.0000   1.0000   1.0000   1.0000   1.0000   1.0000   1.0000
     0.0000

     highest occupied, lowest unoccupied level (ev):     3.0501    5.1343

!    total energy              =   -7979.62722404 Ry

     total all-electron energy =   -282510.781937 Ry
     estimated scf accuracy    <       0.00000077 Ry

     The total energy is the sum of the following terms:
     one-electron contribution =    -463.62116589 Ry
     hartree contribution      =     316.57510340 Ry
     xc contribution           =    -465.88975817 Ry
     ewald contribution        =    -633.56960439 Ry
     one-center paw contrib.   =   -6733.12179899 Ry
      -> PAW hartree energy AE =      25.63887278 Ry
      -> PAW hartree energy PS =     -25.52932385 Ry
      -> PAW xc energy AE      =    -383.53090617 Ry
      -> PAW xc energy PS      =      20.51558021 Ry
      -> total E_H with PAW    =     316.68465233 Ry
      -> total E_XC with PAW   =    -828.90508412 Ry

     convergence has been achieved in  11 iterations

     Forces acting on atoms (cartesian axes, Ry/au):

     atom    1 type  3   force =     0.00000000   -0.00063603    0.00036098
     atom    2 type  3   force =     0.00000000    0.00063603   -0.00036098
     atom    3 type  3   force =     0.00000000   -0.00063603   -0.00036098
     atom    4 type  3   force =     0.00000000    0.00063603    0.00036098
     atom    5 type  1   force =     0.00000000   -0.00033766    0.00038693
     atom    6 type  1   force =    -0.00000000    0.00033766   -0.00038693
     atom    7 type  1   force =     0.00000000   -0.00033766   -0.00038693
     atom    8 type  1   force =    -0.00000000    0.00033766    0.00038693
     atom    9 type  2   force =     0.00000000    0.00004833   -0.00019999
     atom   10 type  2   force =     0.00000000   -0.00004833    0.00019999
     atom   11 type  2   force =     0.00000000    0.00004833    0.00019999
     atom   12 type  2   force =     0.00000000   -0.00004833   -0.00019999
     atom   13 type  2   force =    -0.00000000   -0.00014880   -0.00045210
     atom   14 type  2   force =     0.00000000    0.00014880    0.00045210
     atom   15 type  2   force =     0.00000000   -0.00014880    0.00045210
     atom   16 type  2   force =     0.00000000    0.00014880   -0.00045210
     atom   17 type  2   force =    -0.00000000   -0.00052342    0.00035865
     atom   18 type  2   force =     0.00000000    0.00052342   -0.00035865
     atom   19 type  2   force =    -0.00000000   -0.00052342   -0.00035865
     atom   20 type  2   force =     0.00000000    0.00052342    0.00035865
     The non-local contrib.  to forces
     atom    1 type  3   force =     0.00000000    0.00218357   -0.00222931
     atom    2 type  3   force =     0.00000000   -0.00218357    0.00222931
     atom    3 type  3   force =     0.00000000    0.00218357    0.00222931
     atom    4 type  3   force =     0.00000000   -0.00218357   -0.00222931
     atom    5 type  1   force =     0.00000000   -0.08702180   -0.13177401
     atom    6 type  1   force =     0.00000000    0.08702180    0.13177401
     atom    7 type  1   force =     0.00000000   -0.08702180    0.13177401
     atom    8 type  1   force =     0.00000000    0.08702180   -0.13177401
     atom    9 type  2   force =     0.00000000   -0.04828139   -0.04724103
     atom   10 type  2   force =     0.00000000    0.04828139    0.04724103
     atom   11 type  2   force =     0.00000000   -0.04828139    0.04724103
     atom   12 type  2   force =     0.00000000    0.04828139   -0.04724103
     atom   13 type  2   force =     0.00000000   -0.03284873    0.05564926
     atom   14 type  2   force =     0.00000000    0.03284873   -0.05564926
     atom   15 type  2   force =     0.00000000   -0.03284873   -0.05564926
     atom   16 type  2   force =     0.00000000    0.03284873    0.05564926
     atom   17 type  2   force =    -0.00000000    0.05542260   -0.01652990
     atom   18 type  2   force =     0.00000000   -0.05542260    0.01652990
     atom   19 type  2   force =     0.00000000    0.05542260    0.01652990
     atom   20 type  2   force =     0.00000000   -0.05542260   -0.01652990
     The ionic contribution  to forces
     atom    1 type  3   force =    -0.00000000    0.02273773    0.42856976
     atom    2 type  3   force =    -0.00000000   -0.02273773   -0.42856976
     atom    3 type  3   force =    -0.00000000    0.02273773   -0.42856976
     atom    4 type  3   force =    -0.00000000   -0.02273773    0.42856976
     atom    5 type  1   force =    -0.00000000   -2.44382135   -1.60292983
     atom    6 type  1   force =     0.00000000    2.44382135    1.60292983
     atom    7 type  1   force =    -0.00000000   -2.44382135    1.60292983
     atom    8 type  1   force =     0.00000000    2.44382135   -1.60292983
     atom    9 type  2   force =    -0.00000000    3.00608891    5.13288893
     atom   10 type  2   force =     0.00000000   -3.00608891   -5.13288893
     atom   11 type  2   force =    -0.00000000    3.00608891   -5.13288893
     atom   12 type  2   force =    -0.00000000   -3.00608891    5.13288893
     atom   13 type  2   force =     0.00000000    2.02422849   -3.75281499
     atom   14 type  2   force =     0.00000000   -2.02422849    3.75281499
     atom   15 type  2   force =    -0.00000000    2.02422849    3.75281499
     atom   16 type  2   force =    -0.00000000   -2.02422849   -3.75281499
     atom   17 type  2   force =    -0.00000000   -4.20564473    2.10270404
     atom   18 type  2   force =     0.00000000    4.20564473   -2.10270404
     atom   19 type  2   force =    -0.00000000   -4.20564473   -2.10270404
     atom   20 type  2   force =     0.00000000    4.20564473    2.10270404
     The local contribution  to forces
     atom    1 type  3   force =     0.00000000   -0.02547630   -0.42625490
     atom    2 type  3   force =     0.00000000    0.02547630    0.42625490
     atom    3 type  3   force =    -0.00000000   -0.02547630    0.42625490
     atom    4 type  3   force =     0.00000000    0.02547630   -0.42625490
     atom    5 type  1   force =    -0.00000000    2.52910580    1.73458591
     atom    6 type  1   force =    -0.00000000   -2.52910580   -1.73458591
     atom    7 type  1   force =    -0.00000000    2.52910580   -1.73458591
     atom    8 type  1   force =    -0.00000000   -2.52910580    1.73458591
     atom    9 type  2   force =    -0.00000000   -2.96399119   -5.09189005
     atom   10 type  2   force =     0.00000000    2.96399119    5.09189005
     atom   11 type  2   force =    -0.00000000   -2.96399119    5.09189005
     atom   12 type  2   force =     0.00000000    2.96399119   -5.09189005
     atom   13 type  2   force =    -0.00000000   -1.99568717    3.70398021
     atom   14 type  2   force =     0.00000000    1.99568717   -3.70398021
     atom   15 type  2   force =     0.00000000   -1.99568717   -3.70398021
     atom   16 type  2   force =     0.00000000    1.99568717    3.70398021
     atom   17 type  2   force =    -0.00000000    4.15677405   -2.08818825
     atom   18 type  2   force =     0.00000000   -4.15677405    2.08818825
     atom   19 type  2   force =     0.00000000    4.15677405    2.08818825
     atom   20 type  2   force =     0.00000000   -4.15677405   -2.08818825
     The core correction contribution to forces
     atom    1 type  3   force =     0.00000000   -0.00017738    0.00018165
     atom    2 type  3   force =     0.00000000    0.00017738   -0.00018165
     atom    3 type  3   force =     0.00000000   -0.00017738   -0.00018165
     atom    4 type  3   force =    -0.00000000    0.00017738    0.00018165
     atom    5 type  1   force =    -0.00000000    0.00018113    0.00006602
     atom    6 type  1   force =    -0.00000000   -0.00018113   -0.00006602
     atom    7 type  1   force =     0.00000000    0.00018113   -0.00006602
     atom    8 type  1   force =    -0.00000000   -0.00018113    0.00006602
     atom    9 type  2   force =     0.00000000    0.00642521    0.00651729
     atom   10 type  2   force =    -0.00000000   -0.00642521   -0.00651729
     atom   11 type  2   force =     0.00000000    0.00642521   -0.00651729
     atom   12 type  2   force =     0.00000000   -0.00642521    0.00651729
     atom   13 type  2   force =    -0.00000000    0.00434041   -0.00742868
     atom   14 type  2   force =     0.00000000   -0.00434041    0.00742868
     atom   15 type  2   force =     0.00000000    0.00434041    0.00742868
     atom   16 type  2   force =    -0.00000000   -0.00434041   -0.00742868
     atom   17 type  2   force =     0.00000000   -0.00761202    0.00247765
     atom   18 type  2   force =    -0.00000000    0.00761202   -0.00247765
     atom   19 type  2   force =     0.00000000   -0.00761202   -0.00247765
     atom   20 type  2   force =     0.00000000    0.00761202    0.00247765
     The Hubbard contrib.    to forces
     atom    1 type  3   force =     0.00000000    0.00000000    0.00000000
     atom    2 type  3   force =     0.00000000    0.00000000    0.00000000
     atom    3 type  3   force =     0.00000000    0.00000000    0.00000000
     atom    4 type  3   force =     0.00000000    0.00000000    0.00000000
     atom    5 type  1   force =     0.00000000    0.00000000    0.00000000
     atom    6 type  1   force =     0.00000000    0.00000000    0.00000000
     atom    7 type  1   force =     0.00000000    0.00000000    0.00000000
     atom    8 type  1   force =     0.00000000    0.00000000    0.00000000
     atom    9 type  2   force =     0.00000000    0.00000000    0.00000000
     atom   10 type  2   force =     0.00000000    0.00000000    0.00000000
     atom   11 type  2   force =     0.00000000    0.00000000    0.00000000
     atom   12 type  2   force =     0.00000000    0.00000000    0.00000000
     atom   13 type  2   force =     0.00000000    0.00000000    0.00000000
     atom   14 type  2   force =     0.00000000    0.00000000    0.00000000
     atom   15 type  2   force =     0.00000000    0.00000000    0.00000000
     atom   16 type  2   force =     0.00000000    0.00000000    0.00000000
     atom   17 type  2   force =     0.00000000    0.00000000    0.00000000
     atom   18 type  2   force =     0.00000000    0.00000000    0.00000000
     atom   19 type  2   force =     0.00000000    0.00000000    0.00000000
     atom   20 type  2   force =     0.00000000    0.00000000    0.00000000
     The SCF correction term to forces
     atom    1 type  3   force =     0.00000000    0.00009634    0.00009377
     atom    2 type  3   force =     0.00000000   -0.00009634   -0.00009377
     atom    3 type  3   force =     0.00000000    0.00009634   -0.00009377
     atom    4 type  3   force =     0.00000000   -0.00009634    0.00009377
     atom    5 type  1   force =    -0.00000000    0.00121857    0.00043884
     atom    6 type  1   force =     0.00000000   -0.00121857   -0.00043884
     atom    7 type  1   force =     0.00000000    0.00121857   -0.00043884
     atom    8 type  1   force =     0.00000000   -0.00121857    0.00043884
     atom    9 type  2   force =     0.00000000   -0.00019322   -0.00047514
     atom   10 type  2   force =     0.00000000    0.00019322    0.00047514
     atom   11 type  2   force =     0.00000000   -0.00019322    0.00047514
     atom   12 type  2   force =     0.00000000    0.00019322   -0.00047514
     atom   13 type  2   force =    -0.00000000   -0.00018180    0.00016209
     atom   14 type  2   force =     0.00000000    0.00018180   -0.00016209
     atom   15 type  2   force =    -0.00000000   -0.00018180   -0.00016209
     atom   16 type  2   force =     0.00000000    0.00018180    0.00016209
     atom   17 type  2   force =     0.00000000    0.00053668   -0.00010489
     atom   18 type  2   force =    -0.00000000   -0.00053668    0.00010489
     atom   19 type  2   force =     0.00000000    0.00053668    0.00010489
     atom   20 type  2   force =    -0.00000000   -0.00053668   -0.00010489

     Total force =     0.002425     Total SCF correction =     0.003044
     SCF correction compared to forces is large: reduce conv_thr to get better values


     Computing stress (Cartesian axis) and pressure

          total   stress  (Ry/bohr**3)                   (kbar)     P=       -0.47
  -0.00000314   0.00000000   0.00000000           -0.46        0.00        0.00
   0.00000000  -0.00000291   0.00000000            0.00       -0.43        0.00
   0.00000000   0.00000000  -0.00000364            0.00        0.00       -0.54

     kinetic stress (kbar)   5524.21      0.00      0.00
                                0.00   5535.37      0.00
                                0.00      0.00   5529.33

     local   stress (kbar)  -4516.88     -0.00     -0.00
                               -0.00  -1884.75      0.00
                               -0.00      0.00   -991.39

     nonloc. stress (kbar)   1139.70      0.00      0.00
                                0.00   1138.10      0.00
                                0.00      0.00   1140.75

     hartree stress (kbar)   3402.38     -0.00     -0.00
                               -0.00   2188.70      0.00
                               -0.00      0.00   1719.11

     exc-cor stress (kbar)   5446.86     -0.00     -0.00
                               -0.00   5446.51      0.00
                               -0.00      0.00   5446.94

     corecor stress (kbar)  -7211.93      0.00     -0.00
                                0.00  -7212.20     -0.00
                               -0.00     -0.00  -7212.18

     ewald   stress (kbar)  -3784.80     -0.00     -0.00
                               -0.00  -5212.16      0.00
                               -0.00      0.00  -5633.09

     hubbard stress (kbar)      0.00      0.00      0.00
                                0.00      0.00      0.00
                                0.00      0.00      0.00

     DFT-D   stress (kbar)      0.00      0.00      0.00
                                0.00      0.00      0.00
                                0.00      0.00      0.00

     XDM     stress (kbar)      0.00      0.00      0.00
                                0.00      0.00      0.00
                                0.00      0.00      0.00

     dft-nl  stress (kbar)      0.00      0.00      0.00
                                0.00      0.00      0.00
                                0.00      0.00      0.00

     TS-vdW  stress (kbar)      0.00      0.00      0.00
                                0.00      0.00      0.00
                                0.00      0.00      0.00



     Writing output data file ./out/CsSnI3.save/

     init_run     :    135.85s CPU    136.94s WALL (       1 calls)
     electrons    :   5236.37s CPU   5254.66s WALL (       1 calls)
     forces       :    111.82s CPU    112.05s WALL (       1 calls)
     stress       :    156.40s CPU    156.71s WALL (       1 calls)

     Called by init_run:
     wfcinit      :    132.05s CPU    132.57s WALL (       1 calls)
     wfcinit:atom :      0.22s CPU      0.22s WALL (      64 calls)
     wfcinit:wfcr :    129.64s CPU    130.11s WALL (      64 calls)
     potinit      :      1.34s CPU      1.49s WALL (       1 calls)
     hinit0       :      1.26s CPU      1.29s WALL (       1 calls)

     Called by electrons:
     c_bands      :   4807.08s CPU   4822.16s WALL (      12 calls)
     sum_band     :    412.66s CPU    415.10s WALL (      12 calls)
     v_of_rho     :      0.69s CPU      0.77s WALL (      12 calls)
     v_h          :      0.04s CPU      0.05s WALL (      12 calls)
     v_xc         :      0.74s CPU      0.82s WALL (      14 calls)
     newd         :      9.56s CPU     10.36s WALL (      12 calls)
     PAW_pot      :      7.62s CPU      7.69s WALL (      12 calls)
     mix_rho      :      0.21s CPU      0.21s WALL (      12 calls)

     Called by c_bands:
     init_us_2    :     24.64s CPU     24.84s WALL (    1728 calls)
     cegterg      :   4756.76s CPU   4770.41s WALL (     768 calls)

     Called by sum_band:
     sum_band:wei :      0.00s CPU      0.00s WALL (      12 calls)
     sum_band:loo :    403.60s CPU    405.28s WALL (      12 calls)
     sum_band:buf :      2.71s CPU      2.76s WALL (     768 calls)
     sum_band:ini :     11.07s CPU     11.11s WALL (     768 calls)
     sum_band:cal :    310.26s CPU    310.83s WALL (     768 calls)
     sum_band:bec :      1.76s CPU      1.78s WALL (     768 calls)
     addusdens    :      8.30s CPU      9.05s WALL (      12 calls)
     addusd:skk   :      0.02s CPU      0.02s WALL (      36 calls)
     addusd:dgemm :      4.31s CPU      5.04s WALL (      36 calls)
     addusd:qvan2 :      3.62s CPU      3.63s WALL (      36 calls)

     Called by *egterg:
     cdiaghg      :    131.62s CPU    131.98s WALL (    4275 calls)
     cegterg:over :    260.13s CPU    260.73s WALL (    3571 calls)
     cegterg:upda :    207.04s CPU    207.52s WALL (    3571 calls)
     cegterg:last :    770.86s CPU    772.30s WALL (    2041 calls)
     h_psi        :   2385.59s CPU   2394.71s WALL (    4403 calls)
     s_psi        :    998.05s CPU    999.88s WALL (    4403 calls)
     g_psi        :      1.43s CPU      1.44s WALL (    3571 calls)

     Called by h_psi:
     h_psi:calbec :    946.74s CPU    948.50s WALL (    4403 calls)
     vloc_psi     :    428.92s CPU    434.29s WALL (    4403 calls)
     add_vuspsi   :   1003.23s CPU   1005.18s WALL (    4403 calls)

     General routines
     calbec       :   1383.98s CPU   1386.52s WALL (    5491 calls)
     fft          :      0.46s CPU      0.46s WALL (     158 calls)
     ffts         :      0.02s CPU      0.02s WALL (      12 calls)
     fftw         :    463.01s CPU    468.94s WALL (  484514 calls)

     Parallel routines
     fft_scatt_xy :     36.21s CPU     36.59s WALL (  484684 calls)
     fft_scatt_yz :     95.14s CPU     96.39s WALL (  484684 calls)

     PAW routines
     PAW_pot      :      7.62s CPU      7.69s WALL (      12 calls)
     PAW_symme    :      0.04s CPU      0.04s WALL (      24 calls)

     PWSCF        :      1h34m CPU      1h34m WALL


   This run was terminated on:  12:36: 4  15Jan2021            

=------------------------------------------------------------------------------=
   JOB DONE.
=------------------------------------------------------------------------------=
