
     Program PWSCF v.6.6 starts on 31Jan2021 at 12:13:53 

     This program is part of the open-source Quantum ESPRESSO suite
     for quantum simulation of materials; please cite
         "P. Giannozzi et al., J. Phys.:Condens. Matter 21 395502 (2009);
         "P. Giannozzi et al., J. Phys.:Condens. Matter 29 465901 (2017);
          URL http://www.quantum-espresso.org", 
     in publications or presentations arising from this work. More details at
     http://www.quantum-espresso.org/quote

     Parallel version (MPI), running on    32 processors

     MPI processes distributed on     1 nodes
     R & G space division:  proc/nbgrp/npool/nimage =      32
     Fft bands division:     nmany     =       1
     Waiting for input...
     Reading input from standard input

     Current dimensions of program PWSCF are:
     Max number of different atomic species (ntypx) = 10
     Max number of k-points (npk) =  40000
     Max angular momentum in pseudopotentials (lmaxx) =  3
     file Sn.rel-pbe-dn-rrkjus_psl.1.0.0.UPF: wavefunction(s)  5S 4D 4D renormalized

     Subspace diagonalization in iterative solution of the eigenvalue problem:
     a serial algorithm will be used

 
     Parallelization info
     --------------------
     sticks:   dense  smooth     PW     G-vecs:    dense   smooth      PW
     Min         165     165     45                 5571     5571     791
     Max         166     166     46                 5573     5573     793
     Sum        5297    5297   1449               178307   178307   25323
 

     Title: 
     CsIsalt                                                                    


     bravais-lattice index     =            6
     lattice parameter (alat)  =      14.4199  a.u.
     unit-cell volume          =    1845.1511 (a.u.)^3
     number of atoms/cell      =            6
     number of atomic types    =            2
     number of electrons       =        56.00
     number of Kohn-Sham states=           56
     kinetic-energy cutoff     =      80.0000  Ry
     charge density cutoff     =     320.0000  Ry
     convergence threshold     =      1.0E-06
     mixing beta               =       0.6000
     number of iterations used =            8  plain     mixing
     Exchange-correlation= PBE
                           (   1   4   3   4   0   0   0)
     Non magnetic calculation with spin-orbit


     celldm(1)=  14.419944  celldm(2)=   0.000000  celldm(3)=   0.615377
     celldm(4)=   0.000000  celldm(5)=   0.000000  celldm(6)=   0.000000

     crystal axes: (cart. coord. in units of alat)
               a(1) = (   1.000000   0.000000   0.000000 )  
               a(2) = (   0.000000   1.000000   0.000000 )  
               a(3) = (   0.000000   0.000000   0.615377 )  

     reciprocal axes: (cart. coord. in units 2 pi/alat)
               b(1) = (  1.000000  0.000000  0.000000 )  
               b(2) = (  0.000000  1.000000  0.000000 )  
               b(3) = (  0.000000  0.000000  1.625020 )  


     PseudoPot. # 1 for Sn read from file:
     /scratch/afiorent/degironcoli/pseudo/pseudo-usp/Sn.rel-pbe-dn-rrkjus_psl.1.0.0.UPF
     MD5 check sum: e9415cc9ba1036dfb73502962f03961a
     Pseudo is Ultrasoft + core correction, Zval = 14.0
     Generated using "atomic" code by A. Dal Corso v.6.3
     Using radial grid of 1243 points, 10 beta functions with: 
                l(1) =   0
                l(2) =   0
                l(3) =   1
                l(4) =   1
                l(5) =   1
                l(6) =   1
                l(7) =   2
                l(8) =   2
                l(9) =   2
               l(10) =   2
     Q(r) pseudized with 0 coefficients 


     PseudoPot. # 2 for I  read from file:
     /scratch/afiorent/degironcoli/pseudo/pseudo-usp/I.rel-pbe-n-rrkjus_psl.0.2.2.UPF
     MD5 check sum: b9024a078df971004264c9bcc9ff756e
     Pseudo is Ultrasoft + core correction, Zval =  7.0
     Generated using "atomic" code by A. Dal Corso v.5.0.2 svn rev. 9415
     Using radial grid of 1247 points,  6 beta functions with: 
                l(1) =   0
                l(2) =   0
                l(3) =   1
                l(4) =   1
                l(5) =   1
                l(6) =   1
     Q(r) pseudized with 0 coefficients 


     atomic species   valence    mass     pseudopotential
        Sn            14.00   118.70000     Sn( 1.00)
        I              7.00   126.90000     I ( 1.00)

     16 Sym. Ops., with inversion, found ( 8 have fractional translation)


                                    s                        frac. trans.

      isym =  1     identity                                     

 cryst.   s( 1) = (     1          0          0      )
                  (     0          1          0      )
                  (     0          0          1      )

 cart.    s( 1) = (  1.0000000  0.0000000  0.0000000 )
                  (  0.0000000  1.0000000  0.0000000 )
                  (  0.0000000  0.0000000  1.0000000 )


      isym =  2     180 deg rotation - cart. axis [0,0,1]        

 cryst.   s( 2) = (    -1          0          0      )
                  (     0         -1          0      )
                  (     0          0          1      )

 cart.    s( 2) = ( -1.0000000  0.0000000  0.0000000 )
                  (  0.0000000 -1.0000000  0.0000000 )
                  (  0.0000000  0.0000000  1.0000000 )


      isym =  3     180 deg rotation - cart. axis [0,1,0]        

 cryst.   s( 3) = (    -1          0          0      )    f =(  0.5000000 )
                  (     0          1          0      )       ( -0.5000000 )
                  (     0          0         -1      )       (  0.5000000 )

 cart.    s( 3) = ( -1.0000000  0.0000000  0.0000000 )    f =(  0.5000000 )
                  (  0.0000000  1.0000000  0.0000000 )       ( -0.5000000 )
                  (  0.0000000  0.0000000 -1.0000000 )       (  0.3076884 )


      isym =  4     180 deg rotation - cart. axis [1,0,0]        

 cryst.   s( 4) = (     1          0          0      )    f =( -0.5000000 )
                  (     0         -1          0      )       (  0.5000000 )
                  (     0          0         -1      )       (  0.5000000 )

 cart.    s( 4) = (  1.0000000  0.0000000  0.0000000 )    f =( -0.5000000 )
                  (  0.0000000 -1.0000000  0.0000000 )       (  0.5000000 )
                  (  0.0000000  0.0000000 -1.0000000 )       (  0.3076884 )


      isym =  5     180 deg rotation - cart. axis [1,1,0]        

 cryst.   s( 5) = (     0          1          0      )
                  (     1          0          0      )
                  (     0          0         -1      )

 cart.    s( 5) = (  0.0000000  1.0000000  0.0000000 )
                  (  1.0000000  0.0000000  0.0000000 )
                  (  0.0000000  0.0000000 -1.0000000 )


      isym =  6     180 deg rotation - cart. axis [1,-1,0]       

 cryst.   s( 6) = (     0         -1          0      )
                  (    -1          0          0      )
                  (     0          0         -1      )

 cart.    s( 6) = (  0.0000000 -1.0000000  0.0000000 )
                  ( -1.0000000  0.0000000  0.0000000 )
                  (  0.0000000  0.0000000 -1.0000000 )


      isym =  7      90 deg rotation - cart. axis [0,0,-1]       

 cryst.   s( 7) = (     0         -1          0      )    f =( -0.5000000 )
                  (     1          0          0      )       (  0.5000000 )
                  (     0          0          1      )       ( -0.5000000 )

 cart.    s( 7) = (  0.0000000  1.0000000  0.0000000 )    f =( -0.5000000 )
                  ( -1.0000000  0.0000000  0.0000000 )       (  0.5000000 )
                  (  0.0000000  0.0000000  1.0000000 )       ( -0.3076884 )


      isym =  8      90 deg rotation - cart. axis [0,0,1]        

 cryst.   s( 8) = (     0          1          0      )    f =(  0.5000000 )
                  (    -1          0          0      )       ( -0.5000000 )
                  (     0          0          1      )       ( -0.5000000 )

 cart.    s( 8) = (  0.0000000 -1.0000000  0.0000000 )    f =(  0.5000000 )
                  (  1.0000000  0.0000000  0.0000000 )       ( -0.5000000 )
                  (  0.0000000  0.0000000  1.0000000 )       ( -0.3076884 )


      isym =  9     inversion                                    

 cryst.   s( 9) = (    -1          0          0      )
                  (     0         -1          0      )
                  (     0          0         -1      )

 cart.    s( 9) = ( -1.0000000  0.0000000  0.0000000 )
                  (  0.0000000 -1.0000000  0.0000000 )
                  (  0.0000000  0.0000000 -1.0000000 )


      isym = 10     inv. 180 deg rotation - cart. axis [0,0,1]   

 cryst.   s(10) = (     1          0          0      )
                  (     0          1          0      )
                  (     0          0         -1      )

 cart.    s(10) = (  1.0000000  0.0000000  0.0000000 )
                  (  0.0000000  1.0000000  0.0000000 )
                  (  0.0000000  0.0000000 -1.0000000 )


      isym = 11     inv. 180 deg rotation - cart. axis [0,1,0]   

 cryst.   s(11) = (     1          0          0      )    f =( -0.5000000 )
                  (     0         -1          0      )       (  0.5000000 )
                  (     0          0          1      )       ( -0.5000000 )

 cart.    s(11) = (  1.0000000  0.0000000  0.0000000 )    f =( -0.5000000 )
                  (  0.0000000 -1.0000000  0.0000000 )       (  0.5000000 )
                  (  0.0000000  0.0000000  1.0000000 )       ( -0.3076884 )


      isym = 12     inv. 180 deg rotation - cart. axis [1,0,0]   

 cryst.   s(12) = (    -1          0          0      )    f =(  0.5000000 )
                  (     0          1          0      )       ( -0.5000000 )
                  (     0          0          1      )       ( -0.5000000 )

 cart.    s(12) = ( -1.0000000  0.0000000  0.0000000 )    f =(  0.5000000 )
                  (  0.0000000  1.0000000  0.0000000 )       ( -0.5000000 )
                  (  0.0000000  0.0000000  1.0000000 )       ( -0.3076884 )


      isym = 13     inv. 180 deg rotation - cart. axis [1,1,0]   

 cryst.   s(13) = (     0         -1          0      )
                  (    -1          0          0      )
                  (     0          0          1      )

 cart.    s(13) = (  0.0000000 -1.0000000  0.0000000 )
                  ( -1.0000000  0.0000000  0.0000000 )
                  (  0.0000000  0.0000000  1.0000000 )


      isym = 14     inv. 180 deg rotation - cart. axis [1,-1,0]  

 cryst.   s(14) = (     0          1          0      )
                  (     1          0          0      )
                  (     0          0          1      )

 cart.    s(14) = (  0.0000000  1.0000000  0.0000000 )
                  (  1.0000000  0.0000000  0.0000000 )
                  (  0.0000000  0.0000000  1.0000000 )


      isym = 15     inv.  90 deg rotation - cart. axis [0,0,-1]  

 cryst.   s(15) = (     0          1          0      )    f =(  0.5000000 )
                  (    -1          0          0      )       ( -0.5000000 )
                  (     0          0         -1      )       (  0.5000000 )

 cart.    s(15) = (  0.0000000 -1.0000000  0.0000000 )    f =(  0.5000000 )
                  (  1.0000000  0.0000000  0.0000000 )       ( -0.5000000 )
                  (  0.0000000  0.0000000 -1.0000000 )       (  0.3076884 )


      isym = 16     inv.  90 deg rotation - cart. axis [0,0,1]   

 cryst.   s(16) = (     0         -1          0      )    f =( -0.5000000 )
                  (     1          0          0      )       (  0.5000000 )
                  (     0          0         -1      )       (  0.5000000 )

 cart.    s(16) = (  0.0000000  1.0000000  0.0000000 )    f =( -0.5000000 )
                  ( -1.0000000  0.0000000  0.0000000 )       (  0.5000000 )
                  (  0.0000000  0.0000000 -1.0000000 )       (  0.3076884 )


     double point group D_4h(4/mmm)
     there are 14 classes and  4 irreducible representations
     the character table:

       E     -E    2C4   -2C4   C2    2C2' 2C2'' i     -i    2S4   -2S4   s_h 
                               -C2   -2C2' -2C2'                         -s_h 
G_6+   2.00 -2.00  1.41 -1.41  0.00  0.00  0.00  2.00 -2.00  1.41 -1.41  0.00
G_7+   2.00 -2.00 -1.41  1.41  0.00  0.00  0.00  2.00 -2.00 -1.41  1.41  0.00
G_6-   2.00 -2.00  1.41 -1.41  0.00  0.00  0.00 -2.00  2.00 -1.41  1.41  0.00
G_7-   2.00 -2.00 -1.41  1.41  0.00  0.00  0.00 -2.00  2.00  1.41 -1.41  0.00

        2s_v  2s_d
       -2s_v -2s_d
G_6+   0.00  0.00
G_7+   0.00  0.00
G_6-   0.00  0.00
G_7-   0.00  0.00

     the symmetry operations in each class and the name of the first element:

     E             1
          identity                                               
     -E           -1
          identity E                                             
     2C4           7    8
           90 deg rotation - cart. axis [0,0,-1]                 
     -2C4         -7   -8
           90 deg rotation - cart. axis [0,0,-1] E               
      C2  -C2      2   -2
          180 deg rotation - cart. axis [0,0,1]                  
      2C2'-2C2'    3   -3    4   -4
          180 deg rotation - cart. axis [0,1,0]                  
     2C2''-2C2'    5   -5   -6    6
          180 deg rotation - cart. axis [1,1,0]                  
     i             9
          inversion                                              
     -i           -9
          inversion E                                            
     2S4          15   16
          inv.  90 deg rotation - cart. axis [0,0,-1]            
     -2S4        -15  -16
          inv.  90 deg rotation - cart. axis [0,0,-1] E          
      s_h -s_h    10  -10
          inv. 180 deg rotation - cart. axis [0,0,1]             
      2s_v-2s_v   11  -11   12  -12
          inv. 180 deg rotation - cart. axis [0,1,0]             
      2s_d-2s_d   13  -13  -14   14
          inv. 180 deg rotation - cart. axis [1,1,0]             

   Cartesian axes

     site n.     atom                  positions (alat units)
         1           Sn  tau(   1) = (   0.0000000   0.0000000   0.0000000  )
         2           Sn  tau(   2) = (   0.5000000   0.5000000   0.3076884  )
         3           I   tau(   3) = (   0.2985210   0.2985210   0.0000000  )
         4           I   tau(   4) = (   0.7014790   0.7014790   0.0000000  )
         5           I   tau(   5) = (   0.7985210   0.2014790   0.3076884  )
         6           I   tau(   6) = (   0.2014790   0.7985210   0.3076884  )

   Crystallographic axes

     site n.     atom                  positions (cryst. coord.)
         1           Sn  tau(   1) = (  0.0000000  0.0000000  0.0000000  )
         2           Sn  tau(   2) = (  0.5000000  0.5000000  0.5000000  )
         3           I   tau(   3) = (  0.2985210  0.2985210  0.0000000  )
         4           I   tau(   4) = (  0.7014790  0.7014790  0.0000000  )
         5           I   tau(   5) = (  0.7985210  0.2014790  0.5000000  )
         6           I   tau(   6) = (  0.2014790  0.7985210  0.5000000  )

     number of k points=    18
                       cart. coord. in units 2pi/alat
        k(    1) = (   0.0833333   0.0833333   0.1354184), wk =   0.0370370
        k(    2) = (   0.0833333   0.0833333   0.4062551), wk =   0.0370370
        k(    3) = (   0.0833333   0.0833333   0.6770919), wk =   0.0370370
        k(    4) = (   0.0833333   0.2500000   0.1354184), wk =   0.0740741
        k(    5) = (   0.0833333   0.2500000   0.4062551), wk =   0.0740741
        k(    6) = (   0.0833333   0.2500000   0.6770919), wk =   0.0740741
        k(    7) = (   0.0833333   0.4166667   0.1354184), wk =   0.0740741
        k(    8) = (   0.0833333   0.4166667   0.4062551), wk =   0.0740741
        k(    9) = (   0.0833333   0.4166667   0.6770919), wk =   0.0740741
        k(   10) = (   0.2500000   0.2500000   0.1354184), wk =   0.0370370
        k(   11) = (   0.2500000   0.2500000   0.4062551), wk =   0.0370370
        k(   12) = (   0.2500000   0.2500000   0.6770919), wk =   0.0370370
        k(   13) = (   0.2500000   0.4166667   0.1354184), wk =   0.0740741
        k(   14) = (   0.2500000   0.4166667   0.4062551), wk =   0.0740741
        k(   15) = (   0.2500000   0.4166667   0.6770919), wk =   0.0740741
        k(   16) = (   0.4166667   0.4166667   0.1354184), wk =   0.0370370
        k(   17) = (   0.4166667   0.4166667   0.4062551), wk =   0.0370370
        k(   18) = (   0.4166667   0.4166667   0.6770919), wk =   0.0370370

                       cryst. coord.
        k(    1) = (   0.0833333   0.0833333   0.0833333), wk =   0.0370370
        k(    2) = (   0.0833333   0.0833333   0.2500000), wk =   0.0370370
        k(    3) = (   0.0833333   0.0833333   0.4166667), wk =   0.0370370
        k(    4) = (   0.0833333   0.2500000   0.0833333), wk =   0.0740741
        k(    5) = (   0.0833333   0.2500000   0.2500000), wk =   0.0740741
        k(    6) = (   0.0833333   0.2500000   0.4166667), wk =   0.0740741
        k(    7) = (   0.0833333   0.4166667   0.0833333), wk =   0.0740741
        k(    8) = (   0.0833333   0.4166667   0.2500000), wk =   0.0740741
        k(    9) = (   0.0833333   0.4166667   0.4166667), wk =   0.0740741
        k(   10) = (   0.2500000   0.2500000   0.0833333), wk =   0.0370370
        k(   11) = (   0.2500000   0.2500000   0.2500000), wk =   0.0370370
        k(   12) = (   0.2500000   0.2500000   0.4166667), wk =   0.0370370
        k(   13) = (   0.2500000   0.4166667   0.0833333), wk =   0.0740741
        k(   14) = (   0.2500000   0.4166667   0.2500000), wk =   0.0740741
        k(   15) = (   0.2500000   0.4166667   0.4166667), wk =   0.0740741
        k(   16) = (   0.4166667   0.4166667   0.0833333), wk =   0.0370370
        k(   17) = (   0.4166667   0.4166667   0.2500000), wk =   0.0370370
        k(   18) = (   0.4166667   0.4166667   0.4166667), wk =   0.0370370

     Dense  grid:   178307 G-vectors     FFT dimensions: (  90,  90,  54)

     Dynamical RAM for                 wfc:       1.19 MB

     Dynamical RAM for     wfc (w. buffer):      22.60 MB

     Dynamical RAM for           str. fact:       0.17 MB

     Dynamical RAM for           local pot:       0.00 MB

     Dynamical RAM for          nlocal pot:       1.32 MB

     Dynamical RAM for                qrad:       7.52 MB

     Dynamical RAM for          rho,v,vnew:       2.50 MB

     Dynamical RAM for               rhoin:       0.83 MB

     Dynamical RAM for            rho*nmix:       5.44 MB

     Dynamical RAM for           G-vectors:       0.36 MB

     Dynamical RAM for          h,s,v(r/c):       0.57 MB

     Dynamical RAM for          <psi|beta>:       0.21 MB

     Dynamical RAM for                 psi:       2.38 MB

     Dynamical RAM for                hpsi:       2.38 MB

     Dynamical RAM for                spsi:       2.38 MB

     Dynamical RAM for      wfcinit/wfcrot:       2.27 MB

     Dynamical RAM for           addusdens:      52.21 MB

     Dynamical RAM for          addusforce:      52.82 MB

     Dynamical RAM for         addusstress:      53.40 MB

     Estimated static dynamical RAM per process >      41.99 MB

     Estimated max dynamical RAM per process >      95.40 MB

     Estimated total dynamical RAM >       2.98 GB

     Initial potential from superposition of free atoms

     starting charge   55.99750, renormalised to   56.00000
     Starting wfcs are   68 randomized atomic wfcs

     total cpu time spent up to now is       17.7 secs

     Self-consistent Calculation

     iteration #  1     ecut=    80.00 Ry     beta= 0.60
     Davidson diagonalization with overlap
     ethr =  1.00E-02,  avg # of iterations =  1.1

     Threshold (ethr) on eigenvalues was too large:
     Diagonalizing with lowered threshold

     Davidson diagonalization with overlap
     ethr =  2.76E-04,  avg # of iterations =  2.9

     total cpu time spent up to now is       40.4 secs

     total energy              =    -561.61362294 Ry
     estimated scf accuracy    <       0.14031763 Ry

     iteration #  2     ecut=    80.00 Ry     beta= 0.60
     Davidson diagonalization with overlap
     ethr =  2.51E-04,  avg # of iterations =  3.3

     total cpu time spent up to now is       55.8 secs

     total energy              =    -561.66003472 Ry
     estimated scf accuracy    <       0.02731428 Ry

     iteration #  3     ecut=    80.00 Ry     beta= 0.60
     Davidson diagonalization with overlap
     ethr =  4.88E-05,  avg # of iterations =  2.0

     total cpu time spent up to now is       69.6 secs

     total energy              =    -561.66388673 Ry
     estimated scf accuracy    <       0.00147312 Ry

     iteration #  4     ecut=    80.00 Ry     beta= 0.60
     Davidson diagonalization with overlap
     ethr =  2.63E-06,  avg # of iterations =  5.0

     total cpu time spent up to now is       88.1 secs

     total energy              =    -561.66451098 Ry
     estimated scf accuracy    <       0.00080248 Ry

     iteration #  5     ecut=    80.00 Ry     beta= 0.60
     Davidson diagonalization with overlap
     ethr =  1.43E-06,  avg # of iterations =  2.4

     total cpu time spent up to now is      101.1 secs

     total energy              =    -561.66468443 Ry
     estimated scf accuracy    <       0.00000301 Ry

     iteration #  6     ecut=    80.00 Ry     beta= 0.60
     Davidson diagonalization with overlap
     ethr =  5.37E-09,  avg # of iterations =  8.4

     total cpu time spent up to now is      129.1 secs

     total energy              =    -561.66469450 Ry
     estimated scf accuracy    <       0.00000884 Ry

     iteration #  7     ecut=    80.00 Ry     beta= 0.60
     Davidson diagonalization with overlap
     ethr =  5.37E-09,  avg # of iterations =  2.1

     total cpu time spent up to now is      143.1 secs

     total energy              =    -561.66469467 Ry
     estimated scf accuracy    <       0.00000109 Ry

     iteration #  8     ecut=    80.00 Ry     beta= 0.60
     Davidson diagonalization with overlap
     ethr =  1.95E-09,  avg # of iterations =  4.2

     total cpu time spent up to now is      157.8 secs

     End of self-consistent calculation

          k = 0.0833 0.0833 0.1354 ( 22303 PWs)   bands (ev):

   -18.8616 -18.8616 -18.8607 -18.8607 -18.8562 -18.8562 -18.8561 -18.8561
   -17.8257 -17.8257 -17.8239 -17.8239 -17.8179 -17.8179 -17.8176 -17.8176
   -17.8169 -17.8169 -17.8168 -17.8168  -9.2962  -9.2962  -8.8340  -8.8340
    -8.8120  -8.8120  -8.6923  -8.6923  -4.0495  -4.0495  -2.3950  -2.3950
    -0.3351  -0.3351   0.0367   0.0367   0.3927   0.3927   0.4768   0.4768
     0.9601   0.9601   1.2393   1.2393   1.3260   1.3260   1.6414   1.6414
     2.0528   2.0528   2.2475   2.2475   2.3737   2.3737   3.0055   3.0055

     occupation numbers 
     1.0000   1.0000   1.0000   1.0000   1.0000   1.0000   1.0000   1.0000
     1.0000   1.0000   1.0000   1.0000   1.0000   1.0000   1.0000   1.0000
     1.0000   1.0000   1.0000   1.0000   1.0000   1.0000   1.0000   1.0000
     1.0000   1.0000   1.0000   1.0000   1.0000   1.0000   1.0000   1.0000
     1.0000   1.0000   1.0000   1.0000   1.0000   1.0000   1.0000   1.0000
     1.0000   1.0000   1.0000   1.0000   1.0000   1.0000   1.0000   1.0000
     1.0000   1.0000   1.0000   1.0000   1.0000   1.0000   1.0000   1.0000

          k = 0.0833 0.0833 0.4063 ( 22280 PWs)   bands (ev):

   -18.8613 -18.8613 -18.8607 -18.8607 -18.8562 -18.8562 -18.8561 -18.8561
   -17.8249 -17.8249 -17.8236 -17.8236 -17.8190 -17.8190 -17.8188 -17.8188
   -17.8161 -17.8161 -17.8161 -17.8161  -9.1641  -9.1641  -8.7830  -8.7830
    -8.7594  -8.7594  -8.6974  -8.6974  -3.9997  -3.9997  -2.8142  -2.8142
    -0.3592  -0.3592  -0.0095  -0.0095   0.0623   0.0623   0.3136   0.3136
     0.6058   0.6058   0.9238   0.9238   1.1565   1.1565   1.3908   1.3908
     2.0846   2.0846   2.1555   2.1555   2.2834   2.2834   3.0981   3.0981

     occupation numbers 
     1.0000   1.0000   1.0000   1.0000   1.0000   1.0000   1.0000   1.0000
     1.0000   1.0000   1.0000   1.0000   1.0000   1.0000   1.0000   1.0000
     1.0000   1.0000   1.0000   1.0000   1.0000   1.0000   1.0000   1.0000
     1.0000   1.0000   1.0000   1.0000   1.0000   1.0000   1.0000   1.0000
     1.0000   1.0000   1.0000   1.0000   1.0000   1.0000   1.0000   1.0000
     1.0000   1.0000   1.0000   1.0000   1.0000   1.0000   1.0000   1.0000
     1.0000   1.0000   1.0000   1.0000   1.0000   1.0000   1.0000   1.0000

          k = 0.0833 0.0833 0.6771 ( 22312 PWs)   bands (ev):

   -18.8611 -18.8611 -18.8608 -18.8608 -18.8562 -18.8562 -18.8561 -18.8561
   -17.8241 -17.8241 -17.8236 -17.8236 -17.8201 -17.8201 -17.8200 -17.8200
   -17.8153 -17.8153 -17.8153 -17.8153  -8.9614  -8.9614  -8.7939  -8.7939
    -8.7061  -8.7061  -8.7049  -8.7049  -3.8189  -3.8189  -3.3977  -3.3977
    -0.4363  -0.4363  -0.2474  -0.2474   0.0056   0.0056   0.1420   0.1420
     0.4058   0.4058   0.6888   0.6888   1.4060   1.4060   1.4815   1.4815
     1.7555   1.7555   1.8273   1.8273   2.3223   2.3223   2.7263   2.7263

     occupation numbers 
     1.0000   1.0000   1.0000   1.0000   1.0000   1.0000   1.0000   1.0000
     1.0000   1.0000   1.0000   1.0000   1.0000   1.0000   1.0000   1.0000
     1.0000   1.0000   1.0000   1.0000   1.0000   1.0000   1.0000   1.0000
     1.0000   1.0000   1.0000   1.0000   1.0000   1.0000   1.0000   1.0000
     1.0000   1.0000   1.0000   1.0000   1.0000   1.0000   1.0000   1.0000
     1.0000   1.0000   1.0000   1.0000   1.0000   1.0000   1.0000   1.0000
     1.0000   1.0000   1.0000   1.0000   1.0000   1.0000   1.0000   1.0000

          k = 0.0833 0.2500 0.1354 ( 22298 PWs)   bands (ev):

   -18.8614 -18.8614 -18.8608 -18.8608 -18.8562 -18.8562 -18.8561 -18.8561
   -17.8255 -17.8255 -17.8242 -17.8242 -17.8178 -17.8178 -17.8176 -17.8176
   -17.8169 -17.8169 -17.8168 -17.8168  -9.2465  -9.2465  -8.9175  -8.9175
    -8.7929  -8.7929  -8.6912  -8.6912  -3.8774  -3.8774  -2.7127  -2.7127
    -0.2224  -0.2224   0.1428   0.1428   0.4299   0.4299   0.6622   0.6622
     0.9453   0.9453   1.2094   1.2094   1.3561   1.3561   1.5748   1.5748
     2.0061   2.0061   2.2019   2.2019   2.2887   2.2887   2.7741   2.7741

     occupation numbers 
     1.0000   1.0000   1.0000   1.0000   1.0000   1.0000   1.0000   1.0000
     1.0000   1.0000   1.0000   1.0000   1.0000   1.0000   1.0000   1.0000
     1.0000   1.0000   1.0000   1.0000   1.0000   1.0000   1.0000   1.0000
     1.0000   1.0000   1.0000   1.0000   1.0000   1.0000   1.0000   1.0000
     1.0000   1.0000   1.0000   1.0000   1.0000   1.0000   1.0000   1.0000
     1.0000   1.0000   1.0000   1.0000   1.0000   1.0000   1.0000   1.0000
     1.0000   1.0000   1.0000   1.0000   1.0000   1.0000   1.0000   1.0000

          k = 0.0833 0.2500 0.4063 ( 22310 PWs)   bands (ev):

   -18.8612 -18.8612 -18.8608 -18.8608 -18.8562 -18.8562 -18.8561 -18.8561
   -17.8248 -17.8248 -17.8238 -17.8238 -17.8190 -17.8190 -17.8188 -17.8188
   -17.8161 -17.8161 -17.8161 -17.8161  -9.1225  -9.1225  -8.8529  -8.8529
    -8.7478  -8.7478  -8.6891  -8.6891  -3.8634  -3.8634  -3.0075  -3.0075
    -0.4670  -0.4670  -0.2238  -0.2238   0.2419   0.2419   0.3987   0.3987
     0.7096   0.7096   1.1320   1.1320   1.3188   1.3188   1.4250   1.4250
     2.0342   2.0342   2.0926   2.0926   2.2463   2.2463   2.9314   2.9314

     occupation numbers 
     1.0000   1.0000   1.0000   1.0000   1.0000   1.0000   1.0000   1.0000
     1.0000   1.0000   1.0000   1.0000   1.0000   1.0000   1.0000   1.0000
     1.0000   1.0000   1.0000   1.0000   1.0000   1.0000   1.0000   1.0000
     1.0000   1.0000   1.0000   1.0000   1.0000   1.0000   1.0000   1.0000
     1.0000   1.0000   1.0000   1.0000   1.0000   1.0000   1.0000   1.0000
     1.0000   1.0000   1.0000   1.0000   1.0000   1.0000   1.0000   1.0000
     1.0000   1.0000   1.0000   1.0000   1.0000   1.0000   1.0000   1.0000

          k = 0.0833 0.2500 0.6771 ( 22310 PWs)   bands (ev):

   -18.8611 -18.8611 -18.8608 -18.8608 -18.8563 -18.8563 -18.8560 -18.8560
   -17.8241 -17.8241 -17.8237 -17.8237 -17.8200 -17.8200 -17.8199 -17.8199
   -17.8153 -17.8153 -17.8153 -17.8153  -8.9381  -8.9381  -8.8131  -8.8131
    -8.7097  -8.7097  -8.7069  -8.7069  -3.7621  -3.7621  -3.4508  -3.4508
    -0.6377  -0.6377  -0.4051  -0.4051  -0.0673  -0.0673   0.1603   0.1603
     0.6107   0.6107   1.0242   1.0242   1.4525   1.4525   1.5687   1.5687
     1.7528   1.7528   1.8834   1.8834   2.3553   2.3553   2.8032   2.8032

     occupation numbers 
     1.0000   1.0000   1.0000   1.0000   1.0000   1.0000   1.0000   1.0000
     1.0000   1.0000   1.0000   1.0000   1.0000   1.0000   1.0000   1.0000
     1.0000   1.0000   1.0000   1.0000   1.0000   1.0000   1.0000   1.0000
     1.0000   1.0000   1.0000   1.0000   1.0000   1.0000   1.0000   1.0000
     1.0000   1.0000   1.0000   1.0000   1.0000   1.0000   1.0000   1.0000
     1.0000   1.0000   1.0000   1.0000   1.0000   1.0000   1.0000   1.0000
     1.0000   1.0000   1.0000   1.0000   1.0000   1.0000   1.0000   1.0000

          k = 0.0833 0.4167 0.1354 ( 22307 PWs)   bands (ev):

   -18.8612 -18.8612 -18.8610 -18.8610 -18.8562 -18.8562 -18.8561 -18.8561
   -17.8250 -17.8250 -17.8246 -17.8246 -17.8178 -17.8178 -17.8177 -17.8177
   -17.8169 -17.8169 -17.8168 -17.8168  -9.1549  -9.1549  -9.0371  -9.0371
    -8.7546  -8.7546  -8.7150  -8.7150  -3.5607  -3.5607  -3.1472  -3.1472
    -0.0794  -0.0794   0.0832   0.0832   0.6240   0.6240   0.7827   0.7827
     1.0564   1.0564   1.1223   1.1223   1.4025   1.4025   1.4849   1.4849
     1.9851   1.9851   2.0851   2.0851   2.2844   2.2844   2.4788   2.4788

     occupation numbers 
     1.0000   1.0000   1.0000   1.0000   1.0000   1.0000   1.0000   1.0000
     1.0000   1.0000   1.0000   1.0000   1.0000   1.0000   1.0000   1.0000
     1.0000   1.0000   1.0000   1.0000   1.0000   1.0000   1.0000   1.0000
     1.0000   1.0000   1.0000   1.0000   1.0000   1.0000   1.0000   1.0000
     1.0000   1.0000   1.0000   1.0000   1.0000   1.0000   1.0000   1.0000
     1.0000   1.0000   1.0000   1.0000   1.0000   1.0000   1.0000   1.0000
     1.0000   1.0000   1.0000   1.0000   1.0000   1.0000   1.0000   1.0000

          k = 0.0833 0.4167 0.4063 ( 22301 PWs)   bands (ev):

   -18.8611 -18.8611 -18.8609 -18.8609 -18.8562 -18.8562 -18.8561 -18.8561
   -17.8245 -17.8245 -17.8241 -17.8241 -17.8189 -17.8189 -17.8188 -17.8188
   -17.8161 -17.8161 -17.8161 -17.8161  -9.0463  -9.0463  -8.9498  -8.9498
    -8.7240  -8.7240  -8.7004  -8.7004  -3.6174  -3.6174  -3.3059  -3.3059
    -0.5088  -0.5088  -0.3921  -0.3921   0.3330   0.3330   0.4342   0.4342
     0.9793   0.9793   1.1741   1.1741   1.4649   1.4649   1.5762   1.5762
     1.9220   1.9220   2.0114   2.0114   2.3102   2.3102   2.6524   2.6524

     occupation numbers 
     1.0000   1.0000   1.0000   1.0000   1.0000   1.0000   1.0000   1.0000
     1.0000   1.0000   1.0000   1.0000   1.0000   1.0000   1.0000   1.0000
     1.0000   1.0000   1.0000   1.0000   1.0000   1.0000   1.0000   1.0000
     1.0000   1.0000   1.0000   1.0000   1.0000   1.0000   1.0000   1.0000
     1.0000   1.0000   1.0000   1.0000   1.0000   1.0000   1.0000   1.0000
     1.0000   1.0000   1.0000   1.0000   1.0000   1.0000   1.0000   1.0000
     1.0000   1.0000   1.0000   1.0000   1.0000   1.0000   1.0000   1.0000

          k = 0.0833 0.4167 0.6771 ( 22281 PWs)   bands (ev):

   -18.8611 -18.8611 -18.8608 -18.8608 -18.8563 -18.8563 -18.8560 -18.8560
   -17.8241 -17.8241 -17.8239 -17.8239 -17.8200 -17.8200 -17.8199 -17.8199
   -17.8153 -17.8153 -17.8153 -17.8153  -8.8976  -8.8976  -8.8510  -8.8510
    -8.7112  -8.7112  -8.7094  -8.7094  -3.6664  -3.6664  -3.5431  -3.5431
    -0.7295  -0.7295  -0.5982  -0.5982  -0.0931  -0.0931   0.1648   0.1648
     0.7642   0.7642   1.2697   1.2697   1.5164   1.5164   1.6800   1.6800
     1.8195   1.8195   1.9281   1.9281   2.4303   2.4303   2.8054   2.8054

     occupation numbers 
     1.0000   1.0000   1.0000   1.0000   1.0000   1.0000   1.0000   1.0000
     1.0000   1.0000   1.0000   1.0000   1.0000   1.0000   1.0000   1.0000
     1.0000   1.0000   1.0000   1.0000   1.0000   1.0000   1.0000   1.0000
     1.0000   1.0000   1.0000   1.0000   1.0000   1.0000   1.0000   1.0000
     1.0000   1.0000   1.0000   1.0000   1.0000   1.0000   1.0000   1.0000
     1.0000   1.0000   1.0000   1.0000   1.0000   1.0000   1.0000   1.0000
     1.0000   1.0000   1.0000   1.0000   1.0000   1.0000   1.0000   1.0000

          k = 0.2500 0.2500 0.1354 ( 22329 PWs)   bands (ev):

   -18.8614 -18.8614 -18.8609 -18.8609 -18.8562 -18.8562 -18.8561 -18.8561
   -17.8253 -17.8253 -17.8243 -17.8243 -17.8178 -17.8178 -17.8177 -17.8177
   -17.8169 -17.8169 -17.8168 -17.8168  -9.2009  -9.2009  -8.9357  -8.9357
    -8.8177  -8.8177  -8.7072  -8.7072  -3.7341  -3.7341  -2.8861  -2.8861
    -0.1895  -0.1895   0.1321   0.1321   0.4486   0.4486   0.7994   0.7994
     0.9891   0.9891   1.1470   1.1470   1.3794   1.3794   1.5090   1.5090
     1.9969   1.9969   2.1565   2.1565   2.2272   2.2272   2.6655   2.6655

     occupation numbers 
     1.0000   1.0000   1.0000   1.0000   1.0000   1.0000   1.0000   1.0000
     1.0000   1.0000   1.0000   1.0000   1.0000   1.0000   1.0000   1.0000
     1.0000   1.0000   1.0000   1.0000   1.0000   1.0000   1.0000   1.0000
     1.0000   1.0000   1.0000   1.0000   1.0000   1.0000   1.0000   1.0000
     1.0000   1.0000   1.0000   1.0000   1.0000   1.0000   1.0000   1.0000
     1.0000   1.0000   1.0000   1.0000   1.0000   1.0000   1.0000   1.0000
     1.0000   1.0000   1.0000   1.0000   1.0000   1.0000   1.0000   1.0000

          k = 0.2500 0.2500 0.4063 ( 22308 PWs)   bands (ev):

   -18.8612 -18.8612 -18.8608 -18.8608 -18.8562 -18.8562 -18.8561 -18.8561
   -17.8247 -17.8247 -17.8240 -17.8240 -17.8189 -17.8189 -17.8188 -17.8188
   -17.8161 -17.8161 -17.8161 -17.8161  -9.0851  -9.0851  -8.8730  -8.8730
    -8.7646  -8.7646  -8.6968  -8.6968  -3.7604  -3.7604  -3.1413  -3.1413
    -0.4596  -0.4596  -0.0650  -0.0650   0.1041   0.1041   0.3734   0.3734
     0.6621   0.6621   1.1860   1.1860   1.4196   1.4196   1.5577   1.5577
     1.9573   1.9573   2.0748   2.0748   2.2589   2.2589   2.7512   2.7512

     occupation numbers 
     1.0000   1.0000   1.0000   1.0000   1.0000   1.0000   1.0000   1.0000
     1.0000   1.0000   1.0000   1.0000   1.0000   1.0000   1.0000   1.0000
     1.0000   1.0000   1.0000   1.0000   1.0000   1.0000   1.0000   1.0000
     1.0000   1.0000   1.0000   1.0000   1.0000   1.0000   1.0000   1.0000
     1.0000   1.0000   1.0000   1.0000   1.0000   1.0000   1.0000   1.0000
     1.0000   1.0000   1.0000   1.0000   1.0000   1.0000   1.0000   1.0000
     1.0000   1.0000   1.0000   1.0000   1.0000   1.0000   1.0000   1.0000

          k = 0.2500 0.2500 0.6771 ( 22273 PWs)   bands (ev):

   -18.8611 -18.8611 -18.8608 -18.8608 -18.8563 -18.8563 -18.8560 -18.8560
   -17.8241 -17.8241 -17.8238 -17.8238 -17.8201 -17.8201 -17.8199 -17.8199
   -17.8153 -17.8153 -17.8153 -17.8153  -8.9198  -8.9198  -8.8267  -8.8267
    -8.7112  -8.7112  -8.7098  -8.7098  -3.7359  -3.7359  -3.5058  -3.5058
    -0.6765  -0.6765  -0.3023  -0.3023  -0.1243  -0.1243   0.2681   0.2681
     0.4647   0.4647   1.0614   1.0614   1.5385   1.5385   1.6159   1.6159
     1.8160   1.8160   1.9197   1.9197   2.3334   2.3334   2.6966   2.6966

     occupation numbers 
     1.0000   1.0000   1.0000   1.0000   1.0000   1.0000   1.0000   1.0000
     1.0000   1.0000   1.0000   1.0000   1.0000   1.0000   1.0000   1.0000
     1.0000   1.0000   1.0000   1.0000   1.0000   1.0000   1.0000   1.0000
     1.0000   1.0000   1.0000   1.0000   1.0000   1.0000   1.0000   1.0000
     1.0000   1.0000   1.0000   1.0000   1.0000   1.0000   1.0000   1.0000
     1.0000   1.0000   1.0000   1.0000   1.0000   1.0000   1.0000   1.0000
     1.0000   1.0000   1.0000   1.0000   1.0000   1.0000   1.0000   1.0000

          k = 0.2500 0.4167 0.1354 ( 22313 PWs)   bands (ev):

   -18.8612 -18.8612 -18.8610 -18.8610 -18.8562 -18.8562 -18.8561 -18.8561
   -17.8250 -17.8250 -17.8246 -17.8246 -17.8178 -17.8178 -17.8177 -17.8177
   -17.8168 -17.8168 -17.8168 -17.8168  -9.1182  -9.1182  -9.0172  -9.0172
    -8.7932  -8.7932  -8.7459  -8.7459  -3.4794  -3.4794  -3.1705  -3.1705
    -0.0934  -0.0934   0.0434   0.0434   0.5901   0.5901   0.7950   0.7950
     0.9986   0.9986   1.0946   1.0946   1.4460   1.4460   1.4792   1.4792
     1.9864   1.9864   2.0577   2.0577   2.2820   2.2820   2.4795   2.4795

     occupation numbers 
     1.0000   1.0000   1.0000   1.0000   1.0000   1.0000   1.0000   1.0000
     1.0000   1.0000   1.0000   1.0000   1.0000   1.0000   1.0000   1.0000
     1.0000   1.0000   1.0000   1.0000   1.0000   1.0000   1.0000   1.0000
     1.0000   1.0000   1.0000   1.0000   1.0000   1.0000   1.0000   1.0000
     1.0000   1.0000   1.0000   1.0000   1.0000   1.0000   1.0000   1.0000
     1.0000   1.0000   1.0000   1.0000   1.0000   1.0000   1.0000   1.0000
     1.0000   1.0000   1.0000   1.0000   1.0000   1.0000   1.0000   1.0000

          k = 0.2500 0.4167 0.4063 ( 22292 PWs)   bands (ev):

   -18.8611 -18.8611 -18.8609 -18.8609 -18.8562 -18.8562 -18.8561 -18.8561
   -17.8245 -17.8245 -17.8242 -17.8242 -17.8189 -17.8189 -17.8189 -17.8189
   -17.8161 -17.8161 -17.8161 -17.8161  -9.0181  -9.0181  -8.9378  -8.9378
    -8.7502  -8.7502  -8.7205  -8.7205  -3.5776  -3.5776  -3.3518  -3.3518
    -0.3833  -0.3833  -0.2189  -0.2189   0.2558   0.2558   0.3421   0.3421
     0.7638   0.7638   1.0727   1.0727   1.4917   1.4917   1.6353   1.6353
     1.8998   1.8998   2.0127   2.0127   2.3686   2.3686   2.5807   2.5807

     occupation numbers 
     1.0000   1.0000   1.0000   1.0000   1.0000   1.0000   1.0000   1.0000
     1.0000   1.0000   1.0000   1.0000   1.0000   1.0000   1.0000   1.0000
     1.0000   1.0000   1.0000   1.0000   1.0000   1.0000   1.0000   1.0000
     1.0000   1.0000   1.0000   1.0000   1.0000   1.0000   1.0000   1.0000
     1.0000   1.0000   1.0000   1.0000   1.0000   1.0000   1.0000   1.0000
     1.0000   1.0000   1.0000   1.0000   1.0000   1.0000   1.0000   1.0000
     1.0000   1.0000   1.0000   1.0000   1.0000   1.0000   1.0000   1.0000

          k = 0.2500 0.4167 0.6771 ( 22260 PWs)   bands (ev):

   -18.8610 -18.8610 -18.8608 -18.8608 -18.8563 -18.8563 -18.8560 -18.8560
   -17.8240 -17.8240 -17.8239 -17.8239 -17.8200 -17.8200 -17.8199 -17.8199
   -17.8153 -17.8153 -17.8153 -17.8153  -8.8885  -8.8885  -8.8539  -8.8539
    -8.7128  -8.7128  -8.7120  -8.7120  -3.6806  -3.6806  -3.5901  -3.5901
    -0.5813  -0.5813  -0.3984  -0.3984  -0.1234  -0.1234   0.0993   0.0993
     0.7408   0.7408   1.0926   1.0926   1.5638   1.5638   1.6739   1.6739
     1.8158   1.8158   1.9370   1.9370   2.2671   2.2671   2.5601   2.5601

     occupation numbers 
     1.0000   1.0000   1.0000   1.0000   1.0000   1.0000   1.0000   1.0000
     1.0000   1.0000   1.0000   1.0000   1.0000   1.0000   1.0000   1.0000
     1.0000   1.0000   1.0000   1.0000   1.0000   1.0000   1.0000   1.0000
     1.0000   1.0000   1.0000   1.0000   1.0000   1.0000   1.0000   1.0000
     1.0000   1.0000   1.0000   1.0000   1.0000   1.0000   1.0000   1.0000
     1.0000   1.0000   1.0000   1.0000   1.0000   1.0000   1.0000   1.0000
     1.0000   1.0000   1.0000   1.0000   1.0000   1.0000   1.0000   1.0000

          k = 0.4167 0.4167 0.1354 ( 22301 PWs)   bands (ev):

   -18.8612 -18.8612 -18.8611 -18.8611 -18.8561 -18.8561 -18.8561 -18.8561
   -17.8249 -17.8249 -17.8247 -17.8247 -17.8178 -17.8178 -17.8177 -17.8177
   -17.8168 -17.8168 -17.8168 -17.8168  -9.0579  -9.0579  -9.0110  -9.0110
    -8.8232  -8.8232  -8.7951  -8.7951  -3.3537  -3.3537  -3.2382  -3.2382
    -0.0880  -0.0880  -0.0292  -0.0292   0.6315   0.6315   0.7469   0.7469
     0.9582   0.9582   1.0443   1.0443   1.4887   1.4887   1.4994   1.4994
     1.9607   1.9607   1.9934   1.9934   2.3569   2.3569   2.4481   2.4481

     occupation numbers 
     1.0000   1.0000   1.0000   1.0000   1.0000   1.0000   1.0000   1.0000
     1.0000   1.0000   1.0000   1.0000   1.0000   1.0000   1.0000   1.0000
     1.0000   1.0000   1.0000   1.0000   1.0000   1.0000   1.0000   1.0000
     1.0000   1.0000   1.0000   1.0000   1.0000   1.0000   1.0000   1.0000
     1.0000   1.0000   1.0000   1.0000   1.0000   1.0000   1.0000   1.0000
     1.0000   1.0000   1.0000   1.0000   1.0000   1.0000   1.0000   1.0000
     1.0000   1.0000   1.0000   1.0000   1.0000   1.0000   1.0000   1.0000

          k = 0.4167 0.4167 0.4063 ( 22288 PWs)   bands (ev):

   -18.8610 -18.8610 -18.8610 -18.8610 -18.8562 -18.8562 -18.8561 -18.8561
   -17.8243 -17.8243 -17.8242 -17.8242 -17.8189 -17.8189 -17.8189 -17.8189
   -17.8161 -17.8161 -17.8161 -17.8161  -8.9728  -8.9728  -8.9377  -8.9377
    -8.7698  -8.7698  -8.7524  -8.7524  -3.5086  -3.5086  -3.4262  -3.4262
    -0.1726  -0.1726  -0.0176  -0.0176   0.1553   0.1553   0.3241   0.3241
     0.5298   0.5298   0.7691   0.7691   1.5828   1.5828   1.6711   1.6711
     1.9271   1.9271   1.9876   1.9876   2.4416   2.4416   2.5164   2.5164

     occupation numbers 
     1.0000   1.0000   1.0000   1.0000   1.0000   1.0000   1.0000   1.0000
     1.0000   1.0000   1.0000   1.0000   1.0000   1.0000   1.0000   1.0000
     1.0000   1.0000   1.0000   1.0000   1.0000   1.0000   1.0000   1.0000
     1.0000   1.0000   1.0000   1.0000   1.0000   1.0000   1.0000   1.0000
     1.0000   1.0000   1.0000   1.0000   1.0000   1.0000   1.0000   1.0000
     1.0000   1.0000   1.0000   1.0000   1.0000   1.0000   1.0000   1.0000
     1.0000   1.0000   1.0000   1.0000   1.0000   1.0000   1.0000   1.0000

          k = 0.4167 0.4167 0.6771 ( 22258 PWs)   bands (ev):

   -18.8610 -18.8610 -18.8609 -18.8609 -18.8562 -18.8562 -18.8561 -18.8561
   -17.8239 -17.8239 -17.8238 -17.8238 -17.8201 -17.8201 -17.8200 -17.8200
   -17.8153 -17.8153 -17.8153 -17.8153  -8.8745  -8.8745  -8.8616  -8.8616
    -8.7147  -8.7147  -8.7145  -8.7145  -3.6822  -3.6822  -3.6472  -3.6472
    -0.3702  -0.3702  -0.3108  -0.3108  -0.0405  -0.0405   0.2575   0.2575
     0.4384   0.4384   0.8042   0.8042   1.6224   1.6224   1.7178   1.7178
     1.8549   1.8549   1.9174   1.9174   2.1917   2.1917   2.3710   2.3710

     occupation numbers 
     1.0000   1.0000   1.0000   1.0000   1.0000   1.0000   1.0000   1.0000
     1.0000   1.0000   1.0000   1.0000   1.0000   1.0000   1.0000   1.0000
     1.0000   1.0000   1.0000   1.0000   1.0000   1.0000   1.0000   1.0000
     1.0000   1.0000   1.0000   1.0000   1.0000   1.0000   1.0000   1.0000
     1.0000   1.0000   1.0000   1.0000   1.0000   1.0000   1.0000   1.0000
     1.0000   1.0000   1.0000   1.0000   1.0000   1.0000   1.0000   1.0000
     1.0000   1.0000   1.0000   1.0000   1.0000   1.0000   1.0000   1.0000

     highest occupied level (ev):     3.0981

!    total energy              =    -561.66469508 Ry
     estimated scf accuracy    <       0.00000014 Ry

     The total energy is the sum of the following terms:
     one-electron contribution =    -209.69484683 Ry
     hartree contribution      =     130.14354428 Ry
     xc contribution           =    -262.57064415 Ry
     ewald contribution        =    -219.54274838 Ry

     convergence has been achieved in   8 iterations

     Forces acting on atoms (cartesian axes, Ry/au):

     atom    1 type  1   force =     0.00000000    0.00000000    0.00000000
     atom    2 type  1   force =     0.00000000    0.00000000    0.00000000
     atom    3 type  2   force =    -0.00023018   -0.00023018    0.00000000
     atom    4 type  2   force =     0.00023018    0.00023018    0.00000000
     atom    5 type  2   force =    -0.00023018    0.00023018   -0.00000000
     atom    6 type  2   force =     0.00023018   -0.00023018   -0.00000000
     The non-local contrib.  to forces
     atom    1 type  1   force =     0.00000000    0.00000000    0.00000000
     atom    2 type  1   force =     0.00000000    0.00000000    0.00000000
     atom    3 type  2   force =     0.01452908    0.01452908    0.00000000
     atom    4 type  2   force =    -0.01452908   -0.01452908    0.00000000
     atom    5 type  2   force =     0.01452908   -0.01452908    0.00000000
     atom    6 type  2   force =    -0.01452908    0.01452908    0.00000000
     The ionic contribution  to forces
     atom    1 type  1   force =    -0.00000000   -0.00000000    0.00000000
     atom    2 type  1   force =     0.00000000    0.00000000   -0.00000000
     atom    3 type  2   force =    -0.90990984   -0.90990984    0.00000000
     atom    4 type  2   force =     0.90990984    0.90990984    0.00000000
     atom    5 type  2   force =    -0.90990984    0.90990984   -0.00000000
     atom    6 type  2   force =     0.90990984   -0.90990984   -0.00000000
     The local contribution  to forces
     atom    1 type  1   force =    -0.00000000   -0.00000000    0.00000000
     atom    2 type  1   force =     0.00000000    0.00000000    0.00000000
     atom    3 type  2   force =     0.89688751    0.89688751   -0.00000000
     atom    4 type  2   force =    -0.89688751   -0.89688751    0.00000000
     atom    5 type  2   force =     0.89688751   -0.89688751    0.00000000
     atom    6 type  2   force =    -0.89688751    0.89688751    0.00000000
     The core correction contribution to forces
     atom    1 type  1   force =     0.00000000    0.00000000   -0.00000000
     atom    2 type  1   force =     0.00000000    0.00000000    0.00000000
     atom    3 type  2   force =    -0.00177464   -0.00177464   -0.00000000
     atom    4 type  2   force =     0.00177464    0.00177464    0.00000000
     atom    5 type  2   force =    -0.00177464    0.00177464    0.00000000
     atom    6 type  2   force =     0.00177464   -0.00177464    0.00000000
     The Hubbard contrib.    to forces
     atom    1 type  1   force =     0.00000000    0.00000000    0.00000000
     atom    2 type  1   force =     0.00000000    0.00000000    0.00000000
     atom    3 type  2   force =     0.00000000    0.00000000    0.00000000
     atom    4 type  2   force =     0.00000000    0.00000000    0.00000000
     atom    5 type  2   force =     0.00000000    0.00000000    0.00000000
     atom    6 type  2   force =     0.00000000    0.00000000    0.00000000
     The SCF correction term to forces
     atom    1 type  1   force =    -0.00000000    0.00000000   -0.00000000
     atom    2 type  1   force =    -0.00000000    0.00000000   -0.00000000
     atom    3 type  2   force =     0.00003771    0.00003771    0.00000000
     atom    4 type  2   force =    -0.00003771   -0.00003771   -0.00000000
     atom    5 type  2   force =     0.00003771   -0.00003771    0.00000000
     atom    6 type  2   force =    -0.00003771    0.00003771    0.00000000

     Total force =     0.000651     Total SCF correction =     0.000107
     SCF correction compared to forces is large: reduce conv_thr to get better values


     Computing stress (Cartesian axis) and pressure

          total   stress  (Ry/bohr**3)                   (kbar)     P=       -0.01
  -0.00000077   0.00000000   0.00000000           -0.11        0.00        0.00
   0.00000000  -0.00000077   0.00000000            0.00       -0.11        0.00
   0.00000000   0.00000000   0.00000132            0.00        0.00        0.19

     kinetic stress (kbar)   7259.22      0.00      0.00
                                0.00   7259.22      0.00
                                0.00      0.00   7234.64

     local   stress (kbar)    825.07      0.00      0.00
                                0.00    825.07      0.00
                                0.00      0.00  -3589.73

     nonloc. stress (kbar)  -2041.30      0.00      0.00
                                0.00  -2041.30      0.00
                                0.00      0.00  -2034.00

     hartree stress (kbar)   2828.30     -0.00      0.00
                               -0.00   2828.30     -0.00
                                0.00     -0.00   4719.13

     exc-cor stress (kbar)  14203.57      0.00      0.00
                                0.00  14203.57      0.00
                                0.00      0.00  14204.54

     corecor stress (kbar) -16394.21      0.00     -0.00
                                0.00 -16394.21      0.00
                               -0.00      0.00 -16392.83

     ewald   stress (kbar)  -6680.77      0.00     -0.00
                                0.00  -6680.77     -0.00
                               -0.00     -0.00  -4141.56

     hubbard stress (kbar)      0.00      0.00      0.00
                                0.00      0.00      0.00
                                0.00      0.00      0.00

     DFT-D   stress (kbar)      0.00      0.00      0.00
                                0.00      0.00      0.00
                                0.00      0.00      0.00

     XDM     stress (kbar)      0.00      0.00      0.00
                                0.00      0.00      0.00
                                0.00      0.00      0.00

     dft-nl  stress (kbar)      0.00      0.00      0.00
                                0.00      0.00      0.00
                                0.00      0.00      0.00

     TS-vdW  stress (kbar)      0.00      0.00      0.00
                                0.00      0.00      0.00
                                0.00      0.00      0.00



     Writing output data file ./out/CsIsalt.save/
 
     init_run     :      5.79s CPU      6.46s WALL (       1 calls)
     electrons    :    123.00s CPU    141.03s WALL (       1 calls)
     forces       :      2.30s CPU      2.35s WALL (       1 calls)
     stress       :      8.03s CPU      8.11s WALL (       1 calls)

     Called by init_run:
     wfcinit      :      4.86s CPU      5.23s WALL (       1 calls)
     wfcinit:atom :      0.06s CPU      0.07s WALL (      18 calls)
     wfcinit:wfcr :      4.62s CPU      4.83s WALL (      18 calls)
     potinit      :      0.11s CPU      0.14s WALL (       1 calls)
     hinit0       :      0.42s CPU      0.62s WALL (       1 calls)

     Called by electrons:
     c_bands      :    100.62s CPU    115.79s WALL (       9 calls)
     sum_band     :     19.95s CPU     20.69s WALL (       9 calls)
     v_of_rho     :      0.21s CPU      0.22s WALL (       9 calls)
     v_h          :      0.02s CPU      0.02s WALL (       9 calls)
     v_xc         :      0.23s CPU      0.24s WALL (      11 calls)
     newd         :      2.12s CPU      2.50s WALL (       9 calls)
     mix_rho      :      0.24s CPU      0.27s WALL (       9 calls)

     Called by c_bands:
     init_us_2    :      0.85s CPU      0.86s WALL (     378 calls)
     cegterg      :     93.67s CPU     95.11s WALL (     162 calls)

     Called by sum_band:
     sum_band:wei :      0.00s CPU      0.00s WALL (       9 calls)
     sum_band:loo :     18.00s CPU     18.32s WALL (       9 calls)
     sum_band:buf :      0.42s CPU      0.44s WALL (     162 calls)
     sum_band:ini :      0.40s CPU      0.40s WALL (     162 calls)
     sum_band:cal :      1.27s CPU      1.28s WALL (     162 calls)
     sum_band:bec :      1.00s CPU      1.01s WALL (     162 calls)
     addusdens    :      1.77s CPU      2.18s WALL (       9 calls)
     addusd:skk   :      0.00s CPU      0.00s WALL (      18 calls)
     addusd:dgemm :      0.89s CPU      1.29s WALL (      18 calls)
     addusd:qvan2 :      0.84s CPU      0.84s WALL (      18 calls)

     Called by *egterg:
     cdiaghg      :      3.36s CPU      3.49s WALL (     708 calls)
     cegterg:over :      5.14s CPU      5.15s WALL (     564 calls)
     cegterg:upda :      3.03s CPU      3.04s WALL (     564 calls)
     cegterg:last :      6.23s CPU      6.25s WALL (     411 calls)
     h_psi        :     72.32s CPU     73.75s WALL (     744 calls)
     s_psi        :      4.69s CPU      4.70s WALL (     744 calls)
     g_psi        :      0.28s CPU      0.28s WALL (     564 calls)

     Called by h_psi:
     h_psi:calbec :      4.28s CPU      4.32s WALL (     744 calls)
     vloc_psi     :     61.86s CPU     63.18s WALL (     744 calls)
     add_vuspsi   :      4.99s CPU      5.01s WALL (     744 calls)

     General routines
     calbec       :      6.18s CPU      6.24s WALL (     996 calls)
     fft          :      0.32s CPU      0.45s WALL (     152 calls)
     ffts         :      0.04s CPU      0.04s WALL (      36 calls)
     fftw         :     65.11s CPU     66.51s WALL (  135944 calls)
 
     Parallel routines
     fft_scatt_xy :      7.41s CPU      7.57s WALL (  136132 calls)
     fft_scatt_yz :     25.17s CPU     25.73s WALL (  136132 calls)
 
     PWSCF        :   2m27.23s CPU   3m 7.23s WALL

 
   This run was terminated on:  12:17: 0  31Jan2021            

=------------------------------------------------------------------------------=
   JOB DONE.
=------------------------------------------------------------------------------=
