
     Program PWSCF v.6.6 starts on 18Jan2021 at 13: 2:25 

     This program is part of the open-source Quantum ESPRESSO suite
     for quantum simulation of materials; please cite
         "P. Giannozzi et al., J. Phys.:Condens. Matter 21 395502 (2009);
         "P. Giannozzi et al., J. Phys.:Condens. Matter 29 465901 (2017);
          URL http://www.quantum-espresso.org", 
     in publications or presentations arising from this work. More details at
     http://www.quantum-espresso.org/quote

     Parallel version (MPI), running on    64 processors

     MPI processes distributed on     2 nodes
     R & G space division:  proc/nbgrp/npool/nimage =      64
     Fft bands division:     nmany     =       1
     Waiting for input...
     Reading input from standard input

     Current dimensions of program PWSCF are:
     Max number of different atomic species (ntypx) = 10
     Max number of k-points (npk) =  40000
     Max angular momentum in pseudopotentials (lmaxx) =  3
     file Sn.rel-pbe-dn-kjpaw_psl.1.0.0.UPF: wavefunction(s)  5S 5P 5P 4D 4D renormalized
     file I.rel-pbe-n-kjpaw_psl.1.0.0.UPF: wavefunction(s)  5S renormalized
     file Cs.rel-pbe-spn-kjpaw_psl.1.0.0.UPF: wavefunction(s)  5S 6S renormalized

     Subspace diagonalization in iterative solution of the eigenvalue problem:
     a serial algorithm will be used

 
     Parallelization info
     --------------------
     sticks:   dense  smooth     PW     G-vecs:    dense   smooth      PW
     Min          55      55     14                 6245     6245     836
     Max          56      56     15                 6256     6256     853
     Sum        3545    3545    933               400005   400005   53931
 

     Title: 
     perovskite                                                                 


     bravais-lattice index     =            8
     lattice parameter (alat)  =       9.1317  a.u.
     unit-cell volume          =    6370.5385 (a.u.)^3
     number of atoms/cell      =           20
     number of atomic types    =            3
     number of electrons       =       176.00
     number of Kohn-Sham states=          180
     kinetic-energy cutoff     =      60.0000  Ry
     charge density cutoff     =     240.0000  Ry
     convergence threshold     =      1.0E-06
     mixing beta               =       0.6000
     number of iterations used =            8  plain     mixing
     Exchange-correlation= SLA PW PBX PBC
                           (   1   4   3   4   0   0   0)
     Non magnetic calculation with spin-orbit


     celldm(1)=   9.131705  celldm(2)=   2.227728  celldm(3)=   3.755420
     celldm(4)=   0.000000  celldm(5)=   0.000000  celldm(6)=   0.000000

     crystal axes: (cart. coord. in units of alat)
               a(1) = (   1.000000   0.000000   0.000000 )  
               a(2) = (   0.000000   2.227728   0.000000 )  
               a(3) = (   0.000000   0.000000   3.755420 )  

     reciprocal axes: (cart. coord. in units 2 pi/alat)
               b(1) = (  1.000000  0.000000  0.000000 )  
               b(2) = (  0.000000  0.448888  0.000000 )  
               b(3) = (  0.000000  0.000000  0.266282 )  


     PseudoPot. # 1 for Sn read from file:
     ../../../../pseudo/Sn.rel-pbe-dn-kjpaw_psl.1.0.0.UPF
     MD5 check sum: 6bcaba2b82cf8d008985ef5bb9854e68
     Pseudo is Projector augmented-wave + core cor, Zval = 14.0
     Generated using "atomic" code by A. Dal Corso v.6.3
     Shape of augmentation charge: PSQ
     Using radial grid of 1243 points, 10 beta functions with: 
                l(1) =   0
                l(2) =   0
                l(3) =   1
                l(4) =   1
                l(5) =   1
                l(6) =   1
                l(7) =   2
                l(8) =   2
                l(9) =   2
               l(10) =   2
     Q(r) pseudized with 0 coefficients 


     PseudoPot. # 2 for I  read from file:
     ../../../../pseudo/I.rel-pbe-n-kjpaw_psl.1.0.0.UPF
     MD5 check sum: 1650324410fde579213a6e5684c4bdbf
     Pseudo is Projector augmented-wave + core cor, Zval =  7.0
     Generated using "atomic" code by A. Dal Corso v.6.3
     Shape of augmentation charge: PSQ
     Using radial grid of 1247 points, 10 beta functions with: 
                l(1) =   0
                l(2) =   0
                l(3) =   1
                l(4) =   1
                l(5) =   1
                l(6) =   1
                l(7) =   2
                l(8) =   2
                l(9) =   2
               l(10) =   2
     Q(r) pseudized with 0 coefficients 


     PseudoPot. # 3 for Cs read from file:
     ../../../../pseudo/Cs.rel-pbe-spn-kjpaw_psl.1.0.0.UPF
     MD5 check sum: a112b951ec9e765992cdd678db6f3609
     Pseudo is Projector augmented-wave + core cor, Zval =  9.0
     Generated using "atomic" code by A. Dal Corso v.6.4.1
     Shape of augmentation charge: PSQ
     Using radial grid of 1251 points, 15 beta functions with: 
                l(1) =   0
                l(2) =   0
                l(3) =   0
                l(4) =   1
                l(5) =   1
                l(6) =   1
                l(7) =   1
                l(8) =   2
                l(9) =   2
               l(10) =   2
               l(11) =   2
               l(12) =   3
               l(13) =   3
               l(14) =   3
               l(15) =   3
     Q(r) pseudized with 0 coefficients 


     atomic species   valence    mass     pseudopotential
        Sn            14.00   118.70000     Sn( 1.00)
        I              7.00   126.90000     I ( 1.00)
        Cs             9.00   132.90000     Cs( 1.00)

      8 Sym. Ops., with inversion, found ( 6 have fractional translation)


                                    s                        frac. trans.

      isym =  1     identity                                     

 cryst.   s( 1) = (     1          0          0      )
                  (     0          1          0      )
                  (     0          0          1      )

 cart.    s( 1) = (  1.0000000  0.0000000  0.0000000 )
                  (  0.0000000  1.0000000  0.0000000 )
                  (  0.0000000  0.0000000  1.0000000 )


      isym =  2     180 deg rotation - cart. axis [0,0,1]        

 cryst.   s( 2) = (    -1          0          0      )    f =(  0.0000000 )
                  (     0         -1          0      )       (  0.5000000 )
                  (     0          0          1      )       (  0.5000000 )

 cart.    s( 2) = ( -1.0000000  0.0000000  0.0000000 )    f =(  0.0000000 )
                  (  0.0000000 -1.0000000  0.0000000 )       (  1.1138638 )
                  (  0.0000000  0.0000000  1.0000000 )       (  1.8777098 )


      isym =  3     180 deg rotation - cart. axis [0,1,0]        

 cryst.   s( 3) = (    -1          0          0      )    f =(  0.5000000 )
                  (     0          1          0      )       ( -0.5000000 )
                  (     0          0         -1      )       ( -0.5000000 )

 cart.    s( 3) = ( -1.0000000  0.0000000  0.0000000 )    f =(  0.5000000 )
                  (  0.0000000  1.0000000  0.0000000 )       ( -1.1138638 )
                  (  0.0000000  0.0000000 -1.0000000 )       ( -1.8777098 )


      isym =  4     180 deg rotation - cart. axis [1,0,0]        

 cryst.   s( 4) = (     1          0          0      )    f =( -0.5000000 )
                  (     0         -1          0      )       (  0.0000000 )
                  (     0          0         -1      )       (  0.0000000 )

 cart.    s( 4) = (  1.0000000  0.0000000  0.0000000 )    f =( -0.5000000 )
                  (  0.0000000 -1.0000000  0.0000000 )       (  0.0000000 )
                  (  0.0000000  0.0000000 -1.0000000 )       (  0.0000000 )


      isym =  5     inversion                                    

 cryst.   s( 5) = (    -1          0          0      )
                  (     0         -1          0      )
                  (     0          0         -1      )

 cart.    s( 5) = ( -1.0000000  0.0000000  0.0000000 )
                  (  0.0000000 -1.0000000  0.0000000 )
                  (  0.0000000  0.0000000 -1.0000000 )


      isym =  6     inv. 180 deg rotation - cart. axis [0,0,1]   

 cryst.   s( 6) = (     1          0          0      )    f =(  0.0000000 )
                  (     0          1          0      )       ( -0.5000000 )
                  (     0          0         -1      )       ( -0.5000000 )

 cart.    s( 6) = (  1.0000000  0.0000000  0.0000000 )    f =(  0.0000000 )
                  (  0.0000000  1.0000000  0.0000000 )       ( -1.1138638 )
                  (  0.0000000  0.0000000 -1.0000000 )       ( -1.8777098 )


      isym =  7     inv. 180 deg rotation - cart. axis [0,1,0]   

 cryst.   s( 7) = (     1          0          0      )    f =( -0.5000000 )
                  (     0         -1          0      )       (  0.5000000 )
                  (     0          0          1      )       (  0.5000000 )

 cart.    s( 7) = (  1.0000000  0.0000000  0.0000000 )    f =( -0.5000000 )
                  (  0.0000000 -1.0000000  0.0000000 )       (  1.1138638 )
                  (  0.0000000  0.0000000  1.0000000 )       (  1.8777098 )


      isym =  8     inv. 180 deg rotation - cart. axis [1,0,0]   

 cryst.   s( 8) = (    -1          0          0      )    f =(  0.5000000 )
                  (     0          1          0      )       (  0.0000000 )
                  (     0          0          1      )       (  0.0000000 )

 cart.    s( 8) = ( -1.0000000  0.0000000  0.0000000 )    f =(  0.5000000 )
                  (  0.0000000  1.0000000  0.0000000 )       (  0.0000000 )
                  (  0.0000000  0.0000000  1.0000000 )       (  0.0000000 )


     double point group D_2h (mmm) 
     there are 10 classes and  2 irreducible representations
     the character table:

       E     -E     C2    C2'  C2''  i     -i     s_v   s_v' s_v''
                   -C2   -C2'  -C2''             -s_v  -s_v' -s_v'
G_5+   2.00 -2.00  0.00  0.00  0.00  2.00 -2.00  0.00  0.00  0.00
G_5-   2.00 -2.00  0.00  0.00  0.00 -2.00  2.00  0.00  0.00  0.00

     the symmetry operations in each class and the name of the first element:

     E             1
          identity                                               
     -E           -1
          identity E                                             
      C2  -C2      2   -2
          180 deg rotation - cart. axis [0,0,1]                  
      C2' -C2'     4   -4
          180 deg rotation - cart. axis [1,0,0]                  
     C2'' -C2''    3   -3
          180 deg rotation - cart. axis [0,1,0]                  
     i             5
          inversion                                              
     -i           -5
          inversion E                                            
      s_v -s_v     6   -6
          inv. 180 deg rotation - cart. axis [0,0,1]             
      s_v'-s_v'    8   -8
          inv. 180 deg rotation - cart. axis [1,0,0]             
     s_v''-s_v'    7   -7
          inv. 180 deg rotation - cart. axis [0,1,0]             

   Cartesian axes

     site n.     atom                  positions (alat units)
         1           Cs  tau(   1) = (   0.2500000   0.1859640   2.5168147  )
         2           Cs  tau(   2) = (   0.7500000   2.0417636   1.2386050  )
         3           Cs  tau(   3) = (   0.2500000   1.2998278   3.1163149  )
         4           Cs  tau(   4) = (   0.7500000   0.9278998   0.6391048  )
         5           Sn  tau(   5) = (   0.2500000   0.7615710   1.6485466  )
         6           Sn  tau(   6) = (   0.7500000   1.4661567   2.1068731  )
         7           Sn  tau(   7) = (   0.2500000   1.8754348   0.2291632  )
         8           Sn  tau(   8) = (   0.7500000   0.3522928   3.5262565  )
         9           I   tau(   9) = (   0.7500000   0.0581437   0.4202578  )
        10           I   tau(  10) = (   0.2500000   2.1695839   3.3351619  )
        11           I   tau(  11) = (   0.7500000   1.1720075   1.4574521  )
        12           I   tau(  12) = (   0.2500000   1.0557201   2.2979676  )
        13           I   tau(  13) = (   0.7500000   0.6531118   2.9738192  )
        14           I   tau(  14) = (   0.2500000   1.5746158   0.7816005  )
        15           I   tau(  15) = (   0.7500000   1.7669756   2.6593103  )
        16           I   tau(  16) = (   0.2500000   0.4607520   1.0961094  )
        17           I   tau(  17) = (   0.7500000   0.3753632   1.8734812  )
        18           I   tau(  18) = (   0.2500000   1.8523644   1.8819384  )
        19           I   tau(  19) = (   0.7500000   1.4892270   0.0042286  )
        20           I   tau(  20) = (   0.2500000   0.7385006   3.7511911  )

   Crystallographic axes

     site n.     atom                  positions (cryst. coord.)
         1           Cs  tau(   1) = (  0.2500000  0.0834770  0.6701820  )
         2           Cs  tau(   2) = (  0.7500000  0.9165230  0.3298180  )
         3           Cs  tau(   3) = (  0.2500000  0.5834770  0.8298180  )
         4           Cs  tau(   4) = (  0.7500000  0.4165230  0.1701820  )
         5           Sn  tau(   5) = (  0.2500000  0.3418600  0.4389780  )
         6           Sn  tau(   6) = (  0.7500000  0.6581400  0.5610220  )
         7           Sn  tau(   7) = (  0.2500000  0.8418600  0.0610220  )
         8           Sn  tau(   8) = (  0.7500000  0.1581400  0.9389780  )
         9           I   tau(   9) = (  0.7500000  0.0261000  0.1119070  )
        10           I   tau(  10) = (  0.2500000  0.9739000  0.8880930  )
        11           I   tau(  11) = (  0.7500000  0.5261000  0.3880930  )
        12           I   tau(  12) = (  0.2500000  0.4739000  0.6119070  )
        13           I   tau(  13) = (  0.7500000  0.2931740  0.7918740  )
        14           I   tau(  14) = (  0.2500000  0.7068260  0.2081260  )
        15           I   tau(  15) = (  0.7500000  0.7931740  0.7081260  )
        16           I   tau(  16) = (  0.2500000  0.2068260  0.2918740  )
        17           I   tau(  17) = (  0.7500000  0.1684960  0.4988740  )
        18           I   tau(  18) = (  0.2500000  0.8315040  0.5011260  )
        19           I   tau(  19) = (  0.7500000  0.6684960  0.0011260  )
        20           I   tau(  20) = (  0.2500000  0.3315040  0.9988740  )

     number of k points=     1
                       cart. coord. in units 2pi/alat
        k(    1) = (   0.2500000   0.1122220   0.0665705), wk =   1.0000000

                       cryst. coord.
        k(    1) = (   0.2500000   0.2500000   0.2500000), wk =   1.0000000

     Dense  grid:   400005 G-vectors     FFT dimensions: (  48, 108, 180)

     Dynamical RAM for                 wfc:       4.29 MB

     Dynamical RAM for     wfc (w. buffer):       4.29 MB

     Dynamical RAM for           str. fact:       0.29 MB

     Dynamical RAM for           local pot:       0.00 MB

     Dynamical RAM for          nlocal pot:       9.49 MB

     Dynamical RAM for                qrad:      29.86 MB

     Dynamical RAM for          rho,v,vnew:       2.57 MB

     Dynamical RAM for               rhoin:       0.86 MB

     Dynamical RAM for            rho*nmix:       6.10 MB

     Dynamical RAM for           G-vectors:       0.41 MB

     Dynamical RAM for          h,s,v(r/c):       5.93 MB

     Dynamical RAM for          <psi|beta>:       4.37 MB

     Dynamical RAM for                 psi:       8.58 MB

     Dynamical RAM for                hpsi:       8.58 MB

     Dynamical RAM for                spsi:       8.58 MB

     Dynamical RAM for      wfcinit/wfcrot:       8.43 MB

     Dynamical RAM for           addusdens:     196.01 MB

     Estimated static dynamical RAM per process >      55.19 MB

     Estimated max dynamical RAM per process >     251.20 MB

     Estimated total dynamical RAM >      15.70 GB

     Initial potential from superposition of free atoms

     starting charge  175.83605, renormalised to  176.00000
     Starting wfcs are  208 randomized atomic wfcs
     Checking if some PAW data can be deallocated... 
       PAW data deallocated on   52 nodes for type:  1
       PAW data deallocated on   28 nodes for type:  2
       PAW data deallocated on   48 nodes for type:  3

     total cpu time spent up to now is       79.6 secs

     Self-consistent Calculation

     iteration #  1     ecut=    60.00 Ry     beta= 0.60
     Davidson diagonalization with overlap
     ethr =  1.00E-02,  avg # of iterations =  2.0

     Threshold (ethr) on eigenvalues was too large:
     Diagonalizing with lowered threshold

     Davidson diagonalization with overlap
     ethr =  5.27E-04,  avg # of iterations = 17.0

     negative rho (up, down):  3.481E+03 0.000E+00

     total cpu time spent up to now is      108.0 secs

     total energy              =  -14667.61234618 Ry
     estimated scf accuracy    < 7148771.12870095 Ry

     iteration #  2     ecut=    60.00 Ry     beta= 0.60
     Davidson diagonalization with overlap
     c_bands:  4 eigenvalues not converged
     ethr =  1.00E-02,  avg # of iterations = 60.0

     negative rho (up, down):  3.437E+03 0.000E+00

     total cpu time spent up to now is      498.4 secs

     total energy              =  -60870.01453278 Ry
     estimated scf accuracy    <   20999.30889595 Ry

     iteration #  3     ecut=    60.00 Ry     beta= 0.60
     Davidson diagonalization with overlap
     ethr =  1.00E-02,  avg # of iterations = 19.0

     negative rho (up, down):  5.109E+03 0.000E+00

     total cpu time spent up to now is      524.0 secs

     total energy              =  -99115.51804234 Ry
     estimated scf accuracy    < 1231906.02639651 Ry

     iteration #  4     ecut=    60.00 Ry     beta= 0.60
     Davidson diagonalization with overlap
     ethr =  1.00E-02,  avg # of iterations = 22.0

     negative rho (up, down):  5.308E+03 0.000E+00

     total cpu time spent up to now is      631.5 secs

     total energy              =  -97546.12095246 Ry
     estimated scf accuracy    <  128729.36297258 Ry

     iteration #  5     ecut=    60.00 Ry     beta= 0.60
     Davidson diagonalization with overlap
     ethr =  1.00E-02,  avg # of iterations =  4.0

     negative rho (up, down):  5.703E+03 0.000E+00

     total cpu time spent up to now is      667.8 secs

     total energy              =  -95998.11915942 Ry
     estimated scf accuracy    <   66418.81347133 Ry

     iteration #  6     ecut=    60.00 Ry     beta= 0.60
     Davidson diagonalization with overlap
     c_bands:  1 eigenvalues not converged
     ethr =  1.00E-02,  avg # of iterations = 20.0

     negative rho (up, down):  5.825E+03 0.000E+00

     total cpu time spent up to now is      689.9 secs

     total energy              =  -96069.18713032 Ry
     estimated scf accuracy    <    3179.10120672 Ry

     iteration #  7     ecut=    60.00 Ry     beta= 0.60
     Davidson diagonalization with overlap
     c_bands:  1 eigenvalues not converged
     ethr =  1.00E-02,  avg # of iterations = 20.0

     negative rho (up, down):  5.981E+03 0.000E+00

     total cpu time spent up to now is      702.1 secs

     total energy              =  -96074.02859396 Ry
     estimated scf accuracy    <      11.63459404 Ry

     iteration #  8     ecut=    60.00 Ry     beta= 0.60
     Davidson diagonalization with overlap
     c_bands:  2 eigenvalues not converged
     ethr =  6.61E-03,  avg # of iterations = 20.0

     negative rho (up, down):  5.964E+03 0.000E+00

     total cpu time spent up to now is      723.2 secs

     total energy              =  -96131.54703210 Ry
     estimated scf accuracy    <    6163.18590866 Ry

     iteration #  9     ecut=    60.00 Ry     beta= 0.60
     Davidson diagonalization with overlap
     ethr =  6.61E-03,  avg # of iterations = 12.0

     negative rho (up, down):  5.822E+03 0.000E+00

     total cpu time spent up to now is      746.9 secs

     total energy              =  -96128.17057871 Ry
     estimated scf accuracy    <    4913.48259732 Ry

     iteration # 10     ecut=    60.00 Ry     beta= 0.60
     Davidson diagonalization with overlap
     ethr =  6.61E-03,  avg # of iterations =  2.0

     negative rho (up, down):  5.822E+03 0.000E+00

     total cpu time spent up to now is      757.2 secs

     total energy              =  -96129.08175088 Ry
     estimated scf accuracy    <      15.86011814 Ry

     iteration # 11     ecut=    60.00 Ry     beta= 0.60
     Davidson diagonalization with overlap
     ethr =  6.61E-03,  avg # of iterations =  2.0

     negative rho (up, down):  5.819E+03 0.000E+00

     total cpu time spent up to now is      766.9 secs

     total energy              =  -96129.60143927 Ry
     estimated scf accuracy    <       7.88335401 Ry

     iteration # 12     ecut=    60.00 Ry     beta= 0.60
     Davidson diagonalization with overlap
     ethr =  4.48E-03,  avg # of iterations =  2.0

     negative rho (up, down):  5.817E+03 0.000E+00

     total cpu time spent up to now is      776.7 secs

     total energy              =  -96128.83191700 Ry
     estimated scf accuracy    <       3.82578710 Ry

     iteration # 13     ecut=    60.00 Ry     beta= 0.60
     Davidson diagonalization with overlap
     c_bands:  5 eigenvalues not converged
     ethr =  2.17E-03,  avg # of iterations = 40.0

     negative rho (up, down):  5.816E+03 0.000E+00

     total cpu time spent up to now is      828.8 secs

     total energy              =  -96191.60086810 Ry
     estimated scf accuracy    <       8.27989585 Ry

     iteration # 14     ecut=    60.00 Ry     beta= 0.60
     Davidson diagonalization with overlap
     c_bands:  2 eigenvalues not converged
     ethr =  2.17E-03,  avg # of iterations = 20.0

     negative rho (up, down):  5.816E+03 0.000E+00

     total cpu time spent up to now is      874.5 secs

     total energy              =  -96227.00774555 Ry
     estimated scf accuracy    <      12.54304778 Ry

     iteration # 15     ecut=    60.00 Ry     beta= 0.60
     Davidson diagonalization with overlap
     c_bands:  1 eigenvalues not converged
     ethr =  2.17E-03,  avg # of iterations = 20.0

     negative rho (up, down):  5.816E+03 0.000E+00

     total cpu time spent up to now is      889.6 secs

     total energy              =  -96232.69461850 Ry
     estimated scf accuracy    <      14.96289412 Ry

     iteration # 16     ecut=    60.00 Ry     beta= 0.60
     Davidson diagonalization with overlap
     ethr =  2.17E-03,  avg # of iterations =  2.0

     negative rho (up, down):  5.816E+03 0.000E+00

     total cpu time spent up to now is      899.3 secs

     total energy              =  -96234.14966123 Ry
     estimated scf accuracy    <      13.52514101 Ry

     iteration # 17     ecut=    60.00 Ry     beta= 0.60
     Davidson diagonalization with overlap
     ethr =  2.17E-03,  avg # of iterations =  2.0

     negative rho (up, down):  5.816E+03 0.000E+00

     total cpu time spent up to now is      909.1 secs

     total energy              =  -96234.34654109 Ry
     estimated scf accuracy    <      18.31603520 Ry

     iteration # 18     ecut=    60.00 Ry     beta= 0.60
     Davidson diagonalization with overlap
     ethr =  2.17E-03,  avg # of iterations =  1.0

     negative rho (up, down):  5.816E+03 0.000E+00

     total cpu time spent up to now is      918.6 secs

     total energy              =  -96232.02744510 Ry
     estimated scf accuracy    <      18.37648597 Ry

     iteration # 19     ecut=    60.00 Ry     beta= 0.60
     Davidson diagonalization with overlap
     ethr =  2.17E-03,  avg # of iterations =  2.0

     negative rho (up, down):  5.816E+03 0.000E+00

     total cpu time spent up to now is      934.3 secs

     total energy              =  -96232.97443837 Ry
     estimated scf accuracy    <      14.39164827 Ry

     iteration # 20     ecut=    60.00 Ry     beta= 0.60
     Davidson diagonalization with overlap
     ethr =  2.17E-03,  avg # of iterations =  1.0

     negative rho (up, down):  5.818E+03 0.000E+00

     total cpu time spent up to now is      965.0 secs

     total energy              =  -96236.15992134 Ry
     estimated scf accuracy    <      15.55872561 Ry

     iteration # 21     ecut=    60.00 Ry     beta= 0.60
     Davidson diagonalization with overlap
     ethr =  2.17E-03,  avg # of iterations =  1.0

     negative rho (up, down):  5.818E+03 0.000E+00

     total cpu time spent up to now is     1002.3 secs

     total energy              =  -96236.92781754 Ry
     estimated scf accuracy    <      24.60022567 Ry

     iteration # 22     ecut=    60.00 Ry     beta= 0.60
     Davidson diagonalization with overlap
     ethr =  2.17E-03,  avg # of iterations =  2.0

     negative rho (up, down):  5.809E+03 0.000E+00

     total cpu time spent up to now is     1029.8 secs

     total energy              =  -96225.12401320 Ry
     estimated scf accuracy    <      31.51440897 Ry

     iteration # 23     ecut=    60.00 Ry     beta= 0.60
     Davidson diagonalization with overlap
     ethr =  2.17E-03,  avg # of iterations =  2.0

     negative rho (up, down):  5.809E+03 0.000E+00

     total cpu time spent up to now is     1060.6 secs

     total energy              =  -96224.47721548 Ry
     estimated scf accuracy    <       0.19127720 Ry

     iteration # 24     ecut=    60.00 Ry     beta= 0.60
     Davidson diagonalization with overlap
     ethr =  1.09E-04,  avg # of iterations =  8.0

     negative rho (up, down):  5.809E+03 0.000E+00

     total cpu time spent up to now is     1142.7 secs

     total energy              =  -96224.72595250 Ry
     estimated scf accuracy    <       2.90835469 Ry

     iteration # 25     ecut=    60.00 Ry     beta= 0.60
     Davidson diagonalization with overlap
     ethr =  1.09E-04,  avg # of iterations =  2.0

     negative rho (up, down):  5.809E+03 0.000E+00

     total cpu time spent up to now is     1187.5 secs

     total energy              =  -96224.55428186 Ry
     estimated scf accuracy    <       0.94824567 Ry

     iteration # 26     ecut=    60.00 Ry     beta= 0.60
     Davidson diagonalization with overlap
     ethr =  1.09E-04,  avg # of iterations =  2.0

     negative rho (up, down):  5.809E+03 0.000E+00

     total cpu time spent up to now is     1202.7 secs

     total energy              =  -96224.48168511 Ry
     estimated scf accuracy    <       0.08670976 Ry

     iteration # 27     ecut=    60.00 Ry     beta= 0.60
     Davidson diagonalization with overlap
     ethr =  4.93E-05,  avg # of iterations =  2.0

     negative rho (up, down):  5.809E+03 0.000E+00

     total cpu time spent up to now is     1212.9 secs

     total energy              =  -96224.48243124 Ry
     estimated scf accuracy    <       0.06224017 Ry

     iteration # 28     ecut=    60.00 Ry     beta= 0.60
     Davidson diagonalization with overlap
     ethr =  3.54E-05,  avg # of iterations =  2.0

     negative rho (up, down):  5.809E+03 0.000E+00

     total cpu time spent up to now is     1238.5 secs

     total energy              =  -96224.48002345 Ry
     estimated scf accuracy    <       0.00011833 Ry

     iteration # 29     ecut=    60.00 Ry     beta= 0.60
     Davidson diagonalization with overlap
     c_bands:  4 eigenvalues not converged
     ethr =  6.72E-08,  avg # of iterations = 60.0

     negative rho (up, down):  5.809E+03 0.000E+00

     total cpu time spent up to now is     1553.7 secs

     total energy              =  -96224.50939978 Ry
     estimated scf accuracy    <       0.02272517 Ry

     iteration # 30     ecut=    60.00 Ry     beta= 0.60
     Davidson diagonalization with overlap
     c_bands:  4 eigenvalues not converged
     ethr =  6.72E-08,  avg # of iterations = 20.0

     negative rho (up, down):  5.809E+03 0.000E+00

     total cpu time spent up to now is     1608.0 secs

     total energy              =  -96224.49654712 Ry
     estimated scf accuracy    <       0.01997353 Ry

     iteration # 31     ecut=    60.00 Ry     beta= 0.60
     Davidson diagonalization with overlap
     c_bands:  4 eigenvalues not converged
     ethr =  6.72E-08,  avg # of iterations = 20.0

     negative rho (up, down):  5.809E+03 0.000E+00

     total cpu time spent up to now is     1648.9 secs

     total energy              =  -96224.49570125 Ry
     estimated scf accuracy    <       0.01427154 Ry

     iteration # 32     ecut=    60.00 Ry     beta= 0.60
     Davidson diagonalization with overlap
     c_bands:  4 eigenvalues not converged
     ethr =  6.72E-08,  avg # of iterations = 20.0

     negative rho (up, down):  5.809E+03 0.000E+00

     total cpu time spent up to now is     1687.4 secs

     total energy              =  -96224.46588491 Ry
     estimated scf accuracy    <       0.00983306 Ry

     iteration # 33     ecut=    60.00 Ry     beta= 0.60
     Davidson diagonalization with overlap
     c_bands:  1 eigenvalues not converged
     ethr =  6.72E-08,  avg # of iterations = 20.0

     negative rho (up, down):  5.809E+03 0.000E+00

     total cpu time spent up to now is     1755.8 secs

     total energy              =  -96224.43927695 Ry
     estimated scf accuracy    <       0.00153389 Ry

     iteration # 34     ecut=    60.00 Ry     beta= 0.60
     Davidson diagonalization with overlap
     c_bands:  2 eigenvalues not converged
     ethr =  6.72E-08,  avg # of iterations = 20.0

     negative rho (up, down):  5.809E+03 0.000E+00

     total cpu time spent up to now is     1778.3 secs

     total energy              =  -96224.30309552 Ry
     estimated scf accuracy    <       0.00156382 Ry

     iteration # 35     ecut=    60.00 Ry     beta= 0.60
     Davidson diagonalization with overlap
     ethr =  6.72E-08,  avg # of iterations = 22.0

     negative rho (up, down):  5.809E+03 0.000E+00

     total cpu time spent up to now is     1827.2 secs

     total energy              =  -96224.26696131 Ry
     estimated scf accuracy    <       0.00002177 Ry

     iteration # 36     ecut=    60.00 Ry     beta= 0.60
     Davidson diagonalization with overlap
     ethr =  1.24E-08,  avg # of iterations = 18.0

     negative rho (up, down):  5.809E+03 0.000E+00

     total cpu time spent up to now is     1992.9 secs

     total energy              =  -96224.20585874 Ry
     estimated scf accuracy    <       0.00038852 Ry

     iteration # 37     ecut=    60.00 Ry     beta= 0.60
     Davidson diagonalization with overlap
     ethr =  1.24E-08,  avg # of iterations = 22.0

     negative rho (up, down):  5.809E+03 0.000E+00

     total cpu time spent up to now is     2065.0 secs

     total energy              =  -96224.23713009 Ry
     estimated scf accuracy    <       0.00051267 Ry

     iteration # 38     ecut=    60.00 Ry     beta= 0.60
     Davidson diagonalization with overlap
     ethr =  1.24E-08,  avg # of iterations = 10.0

     negative rho (up, down):  5.809E+03 0.000E+00

     total cpu time spent up to now is     2098.1 secs

     End of self-consistent calculation

          k = 0.2500 0.1122 0.0666 ( 49977 PWs)   bands (ev):

  ************************************************************************
  ************************************************************************
  ************************************************************************
  ************************************************************************
  ************************************************************************
  ************************************************************************
  ************************************************************************
  ************************************************************************
  ************************************************************************
  ************************************************************************
  ************************************************************************
  ************************************************************************
  ************************************************************************
  ************************************************************************
  ************************************************************************
  ************************************************************************
  ************************************************************************
  ************************************************************************
  -984.2847-984.2847-984.1624-984.1624-982.7056-982.7056-979.6261-979.6261
  -976.8983-976.8983-976.3249-976.3249-973.0846-973.0846-971.2757-971.2757
  -551.0721-551.0721-550.2641-550.2641-548.7301-548.7301-547.6632-547.6632
  -522.9656-522.9656-522.2618-522.2618-520.4921-520.4921-518.3219-518.3219
  -314.5007-314.4413-314.4161-314.3541

     occupation numbers 
     1.0000   1.0000   1.0000   1.0000   1.0000   1.0000   1.0000   1.0000
     1.0000   1.0000   1.0000   1.0000   1.0000   1.0000   1.0000   1.0000
     1.0000   1.0000   1.0000   1.0000   1.0000   1.0000   1.0000   1.0000
     1.0000   1.0000   1.0000   1.0000   1.0000   1.0000   1.0000   1.0000
     1.0000   1.0000   1.0000   1.0000   1.0000   1.0000   1.0000   1.0000
     1.0000   1.0000   1.0000   1.0000   1.0000   1.0000   1.0000   1.0000
     1.0000   1.0000   1.0000   1.0000   1.0000   1.0000   1.0000   1.0000
     1.0000   1.0000   1.0000   1.0000   1.0000   1.0000   1.0000   1.0000
     1.0000   1.0000   1.0000   1.0000   1.0000   1.0000   1.0000   1.0000
     1.0000   1.0000   1.0000   1.0000   1.0000   1.0000   1.0000   1.0000
     1.0000   1.0000   1.0000   1.0000   1.0000   1.0000   1.0000   1.0000
     1.0000   1.0000   1.0000   1.0000   1.0000   1.0000   1.0000   1.0000
     1.0000   1.0000   1.0000   1.0000   1.0000   1.0000   1.0000   1.0000
     1.0000   1.0000   1.0000   1.0000   1.0000   1.0000   1.0000   1.0000
     1.0000   1.0000   1.0000   1.0000   1.0000   1.0000   1.0000   1.0000
     1.0000   1.0000   1.0000   1.0000   1.0000   1.0000   1.0000   1.0000
     1.0000   1.0000   1.0000   1.0000   1.0000   1.0000   1.0000   1.0000
     1.0000   1.0000   1.0000   1.0000   1.0000   1.0000   1.0000   1.0000
     1.0000   1.0000   1.0000   1.0000   1.0000   1.0000   1.0000   1.0000
     1.0000   1.0000   1.0000   1.0000   1.0000   1.0000   1.0000   1.0000
     1.0000   1.0000   1.0000   1.0000   1.0000   1.0000   1.0000   1.0000
     1.0000   1.0000   1.0000   1.0000   1.0000   1.0000   1.0000   1.0000
     0.0000   0.0000   0.0000   0.0000

     highest occupied, lowest unoccupied level (ev):  -518.3219 -314.5007

!    total energy              =  -96224.23745874 Ry

     total all-electron energy =   -370836.692116 Ry
     estimated scf accuracy    <       0.00000028 Ry

     The total energy is the sum of the following terms:
     one-electron contribution =    5145.23262939 Ry
     hartree contribution      = 7247965.07595014 Ry
     xc contribution           =   -5936.38458417 Ry
     ewald contribution        =    -633.56960439 Ry
     one-center paw contrib.   =-7342764.59184971 Ry
      -> PAW hartree energy AE =  738622.56672627 Ry
      -> PAW hartree energy PS =-2573830.76172553 Ry
      -> PAW xc energy AE      =   -7224.24555839 Ry
      -> PAW xc energy PS      =    8060.60593229 Ry
      -> total E_H with PAW    = 5412756.88095088 Ry
      -> total E_XC with PAW   =   -5100.02421027 Ry

     convergence has been achieved in  38 iterations

     Writing output data file ./out/CsIhex.save/
 
     init_run     :     19.10s CPU     36.58s WALL (       1 calls)
     electrons    :   1856.41s CPU   2020.86s WALL (       1 calls)

     Called by init_run:
     wfcinit      :      5.74s CPU     12.00s WALL (       1 calls)
     wfcinit:atom :      0.02s CPU      0.21s WALL (       1 calls)
     wfcinit:wfcr :      5.70s CPU     11.56s WALL (       1 calls)
     potinit      :      2.02s CPU      7.67s WALL (       1 calls)
     hinit0       :      6.88s CPU      8.74s WALL (       1 calls)

     Called by electrons:
     c_bands      :   1505.39s CPU   1625.30s WALL (      39 calls)
     sum_band     :    142.26s CPU    167.93s WALL (      39 calls)
     v_of_rho     :      6.32s CPU      9.19s WALL (      39 calls)
     v_h          :      1.39s CPU      1.59s WALL (      39 calls)
     v_xc         :      4.94s CPU      7.25s WALL (      39 calls)
     newd         :    102.05s CPU    114.80s WALL (      39 calls)
     PAW_pot      :     48.62s CPU     52.97s WALL (      39 calls)
     mix_rho      :     28.00s CPU     30.44s WALL (      39 calls)

     Called by c_bands:
     init_us_2    :      1.17s CPU      1.24s WALL (      79 calls)
     cegterg      :   1488.44s CPU   1606.16s WALL (      47 calls)

     Called by sum_band:
     sum_band:wei :      0.00s CPU      0.00s WALL (      39 calls)
     sum_band:loo :     88.89s CPU     99.50s WALL (      39 calls)
     sum_band:buf :      0.00s CPU      0.00s WALL (      39 calls)
     sum_band:ini :      0.63s CPU      0.68s WALL (      39 calls)
     sum_band:cal :     16.24s CPU     17.03s WALL (      39 calls)
     sum_band:bec :      3.86s CPU      4.14s WALL (      39 calls)
     addusdens    :     36.77s CPU     51.00s WALL (      39 calls)
     addusd:skk   :      0.08s CPU      0.10s WALL (     117 calls)
     addusd:dgemm :     13.93s CPU     26.97s WALL (     117 calls)
     addusd:qvan2 :     22.18s CPU     23.21s WALL (     117 calls)

     Called by *egterg:
     cdiaghg      :     33.31s CPU     36.77s WALL (     589 calls)
     cegterg:over :    109.69s CPU    117.29s WALL (     543 calls)
     cegterg:upda :     14.04s CPU     14.88s WALL (     543 calls)
     cegterg:last :     36.15s CPU     38.16s WALL (     248 calls)
     h_psi        :   1201.54s CPU   1304.36s WALL (     591 calls)
     s_psi        :     52.53s CPU     55.67s WALL (     591 calls)
     g_psi        :      0.44s CPU      0.45s WALL (     543 calls)

     Called by h_psi:
     h_psi:calbec :    125.14s CPU    135.91s WALL (     591 calls)
     vloc_psi     :   1027.94s CPU   1117.29s WALL (     591 calls)
     add_vuspsi   :     46.98s CPU     49.59s WALL (     591 calls)

     General routines
     calbec       :    141.37s CPU    152.90s WALL (     630 calls)
     fft          :      5.72s CPU      6.12s WALL (     544 calls)
     ffts         :      2.35s CPU      2.41s WALL (     156 calls)
     fftw         :   1084.02s CPU   1182.42s WALL (  192044 calls)
 
     Parallel routines
     fft_scatt_xy :      8.05s CPU      8.29s WALL (  192744 calls)
     fft_scatt_yz :   1037.47s CPU   1134.57s WALL (  192744 calls)

     PAW routines
     PAW_pot      :     48.62s CPU     52.97s WALL (      39 calls)
     PAW_symme    :      7.58s CPU      8.21s WALL (      78 calls)
 
     PWSCF        :  37m29.18s CPU  40m45.57s WALL

 
   This run was terminated on:  13:43:11  18Jan2021            

=------------------------------------------------------------------------------=
   JOB DONE.
=------------------------------------------------------------------------------=
