
     Program PWSCF v.6.6 starts on 18Jan2021 at 13:45:50 

     This program is part of the open-source Quantum ESPRESSO suite
     for quantum simulation of materials; please cite
         "P. Giannozzi et al., J. Phys.:Condens. Matter 21 395502 (2009);
         "P. Giannozzi et al., J. Phys.:Condens. Matter 29 465901 (2017);
          URL http://www.quantum-espresso.org", 
     in publications or presentations arising from this work. More details at
     http://www.quantum-espresso.org/quote

     Parallel version (MPI), running on    64 processors

     MPI processes distributed on     2 nodes
     R & G space division:  proc/nbgrp/npool/nimage =      64
     Fft bands division:     nmany     =       1
     Waiting for input...
     Reading input from standard input

     Current dimensions of program PWSCF are:
     Max number of different atomic species (ntypx) = 10
     Max number of k-points (npk) =  40000
     Max angular momentum in pseudopotentials (lmaxx) =  3
     file Sn.rel-pbe-dn-kjpaw_psl.1.0.0.UPF: wavefunction(s)  5S 5P 5P 4D 4D renormalized
     file I.rel-pbe-n-kjpaw_psl.1.0.0.UPF: wavefunction(s)  5S renormalized
     file Cs.rel-pbe-spn-kjpaw_psl.1.0.0.UPF: wavefunction(s)  5S 6S renormalized

     Subspace diagonalization in iterative solution of the eigenvalue problem:
     a serial algorithm will be used

 
     Parallelization info
     --------------------
     sticks:   dense  smooth     PW     G-vecs:    dense   smooth      PW
     Min          55      55     14                 6245     6245     836
     Max          56      56     15                 6256     6256     853
     Sum        3545    3545    933               400005   400005   53931
 

     Title: 
     perovskite                                                                 


     bravais-lattice index     =            8
     lattice parameter (alat)  =       9.1317  a.u.
     unit-cell volume          =    6370.5385 (a.u.)^3
     number of atoms/cell      =           20
     number of atomic types    =            3
     number of electrons       =       176.00
     number of Kohn-Sham states=          180
     kinetic-energy cutoff     =      60.0000  Ry
     charge density cutoff     =     240.0000  Ry
     convergence threshold     =      1.0E-06
     mixing beta               =       0.6000
     number of iterations used =            8  local-TF  mixing
     Exchange-correlation= SLA PW PBX PBC
                           (   1   4   3   4   0   0   0)
     Non magnetic calculation with spin-orbit


     celldm(1)=   9.131705  celldm(2)=   2.227728  celldm(3)=   3.755420
     celldm(4)=   0.000000  celldm(5)=   0.000000  celldm(6)=   0.000000

     crystal axes: (cart. coord. in units of alat)
               a(1) = (   1.000000   0.000000   0.000000 )  
               a(2) = (   0.000000   2.227728   0.000000 )  
               a(3) = (   0.000000   0.000000   3.755420 )  

     reciprocal axes: (cart. coord. in units 2 pi/alat)
               b(1) = (  1.000000  0.000000  0.000000 )  
               b(2) = (  0.000000  0.448888  0.000000 )  
               b(3) = (  0.000000  0.000000  0.266282 )  


     PseudoPot. # 1 for Sn read from file:
     ../../../../pseudo/Sn.rel-pbe-dn-kjpaw_psl.1.0.0.UPF
     MD5 check sum: 6bcaba2b82cf8d008985ef5bb9854e68
     Pseudo is Projector augmented-wave + core cor, Zval = 14.0
     Generated using "atomic" code by A. Dal Corso v.6.3
     Shape of augmentation charge: PSQ
     Using radial grid of 1243 points, 10 beta functions with: 
                l(1) =   0
                l(2) =   0
                l(3) =   1
                l(4) =   1
                l(5) =   1
                l(6) =   1
                l(7) =   2
                l(8) =   2
                l(9) =   2
               l(10) =   2
     Q(r) pseudized with 0 coefficients 


     PseudoPot. # 2 for I  read from file:
     ../../../../pseudo/I.rel-pbe-n-kjpaw_psl.1.0.0.UPF
     MD5 check sum: 1650324410fde579213a6e5684c4bdbf
     Pseudo is Projector augmented-wave + core cor, Zval =  7.0
     Generated using "atomic" code by A. Dal Corso v.6.3
     Shape of augmentation charge: PSQ
     Using radial grid of 1247 points, 10 beta functions with: 
                l(1) =   0
                l(2) =   0
                l(3) =   1
                l(4) =   1
                l(5) =   1
                l(6) =   1
                l(7) =   2
                l(8) =   2
                l(9) =   2
               l(10) =   2
     Q(r) pseudized with 0 coefficients 


     PseudoPot. # 3 for Cs read from file:
     ../../../../pseudo/Cs.rel-pbe-spn-kjpaw_psl.1.0.0.UPF
     MD5 check sum: a112b951ec9e765992cdd678db6f3609
     Pseudo is Projector augmented-wave + core cor, Zval =  9.0
     Generated using "atomic" code by A. Dal Corso v.6.4.1
     Shape of augmentation charge: PSQ
     Using radial grid of 1251 points, 15 beta functions with: 
                l(1) =   0
                l(2) =   0
                l(3) =   0
                l(4) =   1
                l(5) =   1
                l(6) =   1
                l(7) =   1
                l(8) =   2
                l(9) =   2
               l(10) =   2
               l(11) =   2
               l(12) =   3
               l(13) =   3
               l(14) =   3
               l(15) =   3
     Q(r) pseudized with 0 coefficients 


     atomic species   valence    mass     pseudopotential
        Sn            14.00   118.70000     Sn( 1.00)
        I              7.00   126.90000     I ( 1.00)
        Cs             9.00   132.90000     Cs( 1.00)

      8 Sym. Ops., with inversion, found ( 6 have fractional translation)


                                    s                        frac. trans.

      isym =  1     identity                                     

 cryst.   s( 1) = (     1          0          0      )
                  (     0          1          0      )
                  (     0          0          1      )

 cart.    s( 1) = (  1.0000000  0.0000000  0.0000000 )
                  (  0.0000000  1.0000000  0.0000000 )
                  (  0.0000000  0.0000000  1.0000000 )


      isym =  2     180 deg rotation - cart. axis [0,0,1]        

 cryst.   s( 2) = (    -1          0          0      )    f =(  0.0000000 )
                  (     0         -1          0      )       (  0.5000000 )
                  (     0          0          1      )       (  0.5000000 )

 cart.    s( 2) = ( -1.0000000  0.0000000  0.0000000 )    f =(  0.0000000 )
                  (  0.0000000 -1.0000000  0.0000000 )       (  1.1138638 )
                  (  0.0000000  0.0000000  1.0000000 )       (  1.8777098 )


      isym =  3     180 deg rotation - cart. axis [0,1,0]        

 cryst.   s( 3) = (    -1          0          0      )    f =(  0.5000000 )
                  (     0          1          0      )       ( -0.5000000 )
                  (     0          0         -1      )       ( -0.5000000 )

 cart.    s( 3) = ( -1.0000000  0.0000000  0.0000000 )    f =(  0.5000000 )
                  (  0.0000000  1.0000000  0.0000000 )       ( -1.1138638 )
                  (  0.0000000  0.0000000 -1.0000000 )       ( -1.8777098 )


      isym =  4     180 deg rotation - cart. axis [1,0,0]        

 cryst.   s( 4) = (     1          0          0      )    f =( -0.5000000 )
                  (     0         -1          0      )       (  0.0000000 )
                  (     0          0         -1      )       (  0.0000000 )

 cart.    s( 4) = (  1.0000000  0.0000000  0.0000000 )    f =( -0.5000000 )
                  (  0.0000000 -1.0000000  0.0000000 )       (  0.0000000 )
                  (  0.0000000  0.0000000 -1.0000000 )       (  0.0000000 )


      isym =  5     inversion                                    

 cryst.   s( 5) = (    -1          0          0      )
                  (     0         -1          0      )
                  (     0          0         -1      )

 cart.    s( 5) = ( -1.0000000  0.0000000  0.0000000 )
                  (  0.0000000 -1.0000000  0.0000000 )
                  (  0.0000000  0.0000000 -1.0000000 )


      isym =  6     inv. 180 deg rotation - cart. axis [0,0,1]   

 cryst.   s( 6) = (     1          0          0      )    f =(  0.0000000 )
                  (     0          1          0      )       ( -0.5000000 )
                  (     0          0         -1      )       ( -0.5000000 )

 cart.    s( 6) = (  1.0000000  0.0000000  0.0000000 )    f =(  0.0000000 )
                  (  0.0000000  1.0000000  0.0000000 )       ( -1.1138638 )
                  (  0.0000000  0.0000000 -1.0000000 )       ( -1.8777098 )


      isym =  7     inv. 180 deg rotation - cart. axis [0,1,0]   

 cryst.   s( 7) = (     1          0          0      )    f =( -0.5000000 )
                  (     0         -1          0      )       (  0.5000000 )
                  (     0          0          1      )       (  0.5000000 )

 cart.    s( 7) = (  1.0000000  0.0000000  0.0000000 )    f =( -0.5000000 )
                  (  0.0000000 -1.0000000  0.0000000 )       (  1.1138638 )
                  (  0.0000000  0.0000000  1.0000000 )       (  1.8777098 )


      isym =  8     inv. 180 deg rotation - cart. axis [1,0,0]   

 cryst.   s( 8) = (    -1          0          0      )    f =(  0.5000000 )
                  (     0          1          0      )       (  0.0000000 )
                  (     0          0          1      )       (  0.0000000 )

 cart.    s( 8) = ( -1.0000000  0.0000000  0.0000000 )    f =(  0.5000000 )
                  (  0.0000000  1.0000000  0.0000000 )       (  0.0000000 )
                  (  0.0000000  0.0000000  1.0000000 )       (  0.0000000 )


     double point group D_2h (mmm) 
     there are 10 classes and  2 irreducible representations
     the character table:

       E     -E     C2    C2'  C2''  i     -i     s_v   s_v' s_v''
                   -C2   -C2'  -C2''             -s_v  -s_v' -s_v'
G_5+   2.00 -2.00  0.00  0.00  0.00  2.00 -2.00  0.00  0.00  0.00
G_5-   2.00 -2.00  0.00  0.00  0.00 -2.00  2.00  0.00  0.00  0.00

     the symmetry operations in each class and the name of the first element:

     E             1
          identity                                               
     -E           -1
          identity E                                             
      C2  -C2      2   -2
          180 deg rotation - cart. axis [0,0,1]                  
      C2' -C2'     4   -4
          180 deg rotation - cart. axis [1,0,0]                  
     C2'' -C2''    3   -3
          180 deg rotation - cart. axis [0,1,0]                  
     i             5
          inversion                                              
     -i           -5
          inversion E                                            
      s_v -s_v     6   -6
          inv. 180 deg rotation - cart. axis [0,0,1]             
      s_v'-s_v'    8   -8
          inv. 180 deg rotation - cart. axis [1,0,0]             
     s_v''-s_v'    7   -7
          inv. 180 deg rotation - cart. axis [0,1,0]             

   Cartesian axes

     site n.     atom                  positions (alat units)
         1           Cs  tau(   1) = (   0.2500000   0.1859640   2.5168147  )
         2           Cs  tau(   2) = (   0.7500000   2.0417636   1.2386050  )
         3           Cs  tau(   3) = (   0.2500000   1.2998278   3.1163149  )
         4           Cs  tau(   4) = (   0.7500000   0.9278998   0.6391048  )
         5           Sn  tau(   5) = (   0.2500000   0.7615710   1.6485466  )
         6           Sn  tau(   6) = (   0.7500000   1.4661567   2.1068731  )
         7           Sn  tau(   7) = (   0.2500000   1.8754348   0.2291632  )
         8           Sn  tau(   8) = (   0.7500000   0.3522928   3.5262565  )
         9           I   tau(   9) = (   0.7500000   0.0581437   0.4202578  )
        10           I   tau(  10) = (   0.2500000   2.1695839   3.3351619  )
        11           I   tau(  11) = (   0.7500000   1.1720075   1.4574521  )
        12           I   tau(  12) = (   0.2500000   1.0557201   2.2979676  )
        13           I   tau(  13) = (   0.7500000   0.6531118   2.9738192  )
        14           I   tau(  14) = (   0.2500000   1.5746158   0.7816005  )
        15           I   tau(  15) = (   0.7500000   1.7669756   2.6593103  )
        16           I   tau(  16) = (   0.2500000   0.4607520   1.0961094  )
        17           I   tau(  17) = (   0.7500000   0.3753632   1.8734812  )
        18           I   tau(  18) = (   0.2500000   1.8523644   1.8819384  )
        19           I   tau(  19) = (   0.7500000   1.4892270   0.0042286  )
        20           I   tau(  20) = (   0.2500000   0.7385006   3.7511911  )

   Crystallographic axes

     site n.     atom                  positions (cryst. coord.)
         1           Cs  tau(   1) = (  0.2500000  0.0834770  0.6701820  )
         2           Cs  tau(   2) = (  0.7500000  0.9165230  0.3298180  )
         3           Cs  tau(   3) = (  0.2500000  0.5834770  0.8298180  )
         4           Cs  tau(   4) = (  0.7500000  0.4165230  0.1701820  )
         5           Sn  tau(   5) = (  0.2500000  0.3418600  0.4389780  )
         6           Sn  tau(   6) = (  0.7500000  0.6581400  0.5610220  )
         7           Sn  tau(   7) = (  0.2500000  0.8418600  0.0610220  )
         8           Sn  tau(   8) = (  0.7500000  0.1581400  0.9389780  )
         9           I   tau(   9) = (  0.7500000  0.0261000  0.1119070  )
        10           I   tau(  10) = (  0.2500000  0.9739000  0.8880930  )
        11           I   tau(  11) = (  0.7500000  0.5261000  0.3880930  )
        12           I   tau(  12) = (  0.2500000  0.4739000  0.6119070  )
        13           I   tau(  13) = (  0.7500000  0.2931740  0.7918740  )
        14           I   tau(  14) = (  0.2500000  0.7068260  0.2081260  )
        15           I   tau(  15) = (  0.7500000  0.7931740  0.7081260  )
        16           I   tau(  16) = (  0.2500000  0.2068260  0.2918740  )
        17           I   tau(  17) = (  0.7500000  0.1684960  0.4988740  )
        18           I   tau(  18) = (  0.2500000  0.8315040  0.5011260  )
        19           I   tau(  19) = (  0.7500000  0.6684960  0.0011260  )
        20           I   tau(  20) = (  0.2500000  0.3315040  0.9988740  )

     number of k points=     1
                       cart. coord. in units 2pi/alat
        k(    1) = (   0.2500000   0.1122220   0.0665705), wk =   1.0000000

                       cryst. coord.
        k(    1) = (   0.2500000   0.2500000   0.2500000), wk =   1.0000000

     Dense  grid:   400005 G-vectors     FFT dimensions: (  48, 108, 180)

     Dynamical RAM for                 wfc:       4.29 MB

     Dynamical RAM for     wfc (w. buffer):       4.29 MB

     Dynamical RAM for           str. fact:       0.29 MB

     Dynamical RAM for           local pot:       0.00 MB

     Dynamical RAM for          nlocal pot:       9.49 MB

     Dynamical RAM for                qrad:      29.86 MB

     Dynamical RAM for          rho,v,vnew:       2.57 MB

     Dynamical RAM for               rhoin:       0.86 MB

     Dynamical RAM for            rho*nmix:       6.10 MB

     Dynamical RAM for           G-vectors:       0.41 MB

     Dynamical RAM for          h,s,v(r/c):       5.93 MB

     Dynamical RAM for          <psi|beta>:       4.37 MB

     Dynamical RAM for                 psi:       8.58 MB

     Dynamical RAM for                hpsi:       8.58 MB

     Dynamical RAM for                spsi:       8.58 MB

     Dynamical RAM for      wfcinit/wfcrot:       8.43 MB

     Dynamical RAM for           addusdens:     196.01 MB

     Estimated static dynamical RAM per process >      55.19 MB

     Estimated max dynamical RAM per process >     251.20 MB

     Estimated total dynamical RAM >      15.70 GB

     Initial potential from superposition of free atoms

     starting charge  175.83605, renormalised to  176.00000
     Starting wfcs are  208 randomized atomic wfcs
     Checking if some PAW data can be deallocated... 
       PAW data deallocated on   52 nodes for type:  1
       PAW data deallocated on   28 nodes for type:  2
       PAW data deallocated on   48 nodes for type:  3

     total cpu time spent up to now is       53.5 secs

     Self-consistent Calculation

     iteration #  1     ecut=    60.00 Ry     beta= 0.60
     Davidson diagonalization with overlap
     ethr =  1.00E-02,  avg # of iterations =  2.0

     Threshold (ethr) on eigenvalues was too large:
     Diagonalizing with lowered threshold

     Davidson diagonalization with overlap
     ethr =  5.27E-04,  avg # of iterations = 17.0

     negative rho (up, down):  3.326E+03 0.000E+00

     total cpu time spent up to now is      154.0 secs

     total energy              = -357796.85150597 Ry
     estimated scf accuracy    < 7148771.12870095 Ry

     iteration #  2     ecut=    60.00 Ry     beta= 0.60
     Davidson diagonalization with overlap
     c_bands:  3 eigenvalues not converged
     ethr =  1.00E-02,  avg # of iterations = 80.0

     negative rho (up, down):  6.440E+03 0.000E+00

     total cpu time spent up to now is      352.0 secs

     total energy              =  -74986.37514317 Ry
     estimated scf accuracy    < 1727871.54858673 Ry

     iteration #  3     ecut=    60.00 Ry     beta= 0.60
     Davidson diagonalization with overlap
     ethr =  1.00E-02,  avg # of iterations = 22.0

     negative rho (up, down):  5.952E+03 0.000E+00

     total cpu time spent up to now is      378.5 secs

     total energy              = -102161.75633792 Ry
     estimated scf accuracy    <   24647.13933886 Ry

     iteration #  4     ecut=    60.00 Ry     beta= 0.60
     Davidson diagonalization with overlap
     ethr =  1.00E-02,  avg # of iterations = 22.0

     negative rho (up, down):  5.965E+03 0.000E+00

     total cpu time spent up to now is      436.5 secs

     total energy              = -103785.69273435 Ry
     estimated scf accuracy    < 2881002.17325838 Ry

     iteration #  5     ecut=    60.00 Ry     beta= 0.60
     Davidson diagonalization with overlap
     ethr =  1.00E-02,  avg # of iterations = 18.0

     negative rho (up, down):  5.526E+03 0.000E+00

     total cpu time spent up to now is      505.7 secs

     total energy              =  -90688.92476601 Ry
     estimated scf accuracy    <  310359.45754419 Ry

     iteration #  6     ecut=    60.00 Ry     beta= 0.60
     Davidson diagonalization with overlap
     ethr =  1.00E-02,  avg # of iterations = 22.0

     negative rho (up, down):  3.265E+03 0.000E+00

     total cpu time spent up to now is      539.0 secs

     total energy              = -502000.14098974 Ry
     estimated scf accuracy    <27807892.78314944 Ry

     iteration #  7     ecut=    60.00 Ry     beta= 0.60
     Davidson diagonalization with overlap
     ethr =  1.00E-02,  avg # of iterations = 11.0

     negative rho (up, down):  3.580E+03 0.000E+00

     total cpu time spent up to now is      557.1 secs

     total energy              =  152364.60176909 Ry
     estimated scf accuracy    <18094833.22903365 Ry

     iteration #  8     ecut=    60.00 Ry     beta= 0.60
     Davidson diagonalization with overlap
     ethr =  1.00E-02,  avg # of iterations = 23.0

     negative rho (up, down):  4.191E+03 0.000E+00

     total cpu time spent up to now is      737.4 secs

     total energy              = -118645.99666754 Ry
     estimated scf accuracy    < 1221401.63295529 Ry

     iteration #  9     ecut=    60.00 Ry     beta= 0.60
     Davidson diagonalization with overlap
     ethr =  1.00E-02,  avg # of iterations = 22.0

     negative rho (up, down):  2.356E+03 0.000E+00

     total cpu time spent up to now is      801.8 secs

     total energy              = -159304.69057556 Ry
     estimated scf accuracy    <  717051.66048382 Ry

     iteration # 10     ecut=    60.00 Ry     beta= 0.60
     Davidson diagonalization with overlap
     ethr =  1.00E-02,  avg # of iterations = 16.0

     negative rho (up, down):  9.025E+03 0.000E+00

     total cpu time spent up to now is      882.6 secs

     total energy              =   40714.74497725 Ry
     estimated scf accuracy    < 2868410.79463707 Ry

     iteration # 11     ecut=    60.00 Ry     beta= 0.60
     Davidson diagonalization with overlap
     ethr =  1.00E-02,  avg # of iterations = 42.0

     negative rho (up, down):  1.012E+04 0.000E+00

     total cpu time spent up to now is     1012.2 secs

     total energy              =  -67534.30342056 Ry
     estimated scf accuracy    < 1988347.14332772 Ry

     iteration # 12     ecut=    60.00 Ry     beta= 0.60
     Davidson diagonalization with overlap
     ethr =  1.00E-02,  avg # of iterations = 37.0

     negative rho (up, down):  9.643E+03 0.000E+00

     total cpu time spent up to now is     1208.9 secs

     total energy              = -127243.61211736 Ry
     estimated scf accuracy    < 4012171.47639785 Ry

     iteration # 13     ecut=    60.00 Ry     beta= 0.60
     Davidson diagonalization with overlap
     ethr =  1.00E-02,  avg # of iterations = 17.0

     negative rho (up, down):  9.772E+03 0.000E+00

     total cpu time spent up to now is     1258.3 secs

     total energy              = -110980.41577098 Ry
     estimated scf accuracy    < 4063545.76944742 Ry

     iteration # 14     ecut=    60.00 Ry     beta= 0.60
     Davidson diagonalization with overlap
     ethr =  1.00E-02,  avg # of iterations =  9.0

     negative rho (up, down):  9.953E+03 0.000E+00

     total cpu time spent up to now is     1274.4 secs

     total energy              = -107215.10671182 Ry
     estimated scf accuracy    < 3746749.51636625 Ry

     iteration # 15     ecut=    60.00 Ry     beta= 0.60
     Davidson diagonalization with overlap
     ethr =  1.00E-02,  avg # of iterations =  4.0

     negative rho (up, down):  9.885E+03 0.000E+00

     total cpu time spent up to now is     1287.9 secs

     total energy              = -116078.38112912 Ry
     estimated scf accuracy    < 4006873.92120249 Ry

     iteration # 16     ecut=    60.00 Ry     beta= 0.60
     Davidson diagonalization with overlap
     ethr =  1.00E-02,  avg # of iterations =  6.0

     negative rho (up, down):  4.922E+03 0.000E+00

     total cpu time spent up to now is     1301.0 secs

     total energy              =  -69200.75720874 Ry
     estimated scf accuracy    < 4029129.09681348 Ry

     iteration # 17     ecut=    60.00 Ry     beta= 0.60
     Davidson diagonalization with overlap
     ethr =  1.00E-02,  avg # of iterations = 22.0

     negative rho (up, down):  1.000E+04 0.000E+00

     total cpu time spent up to now is     1476.9 secs

     total energy              =   46518.60615926 Ry
     estimated scf accuracy    <23696559.13963843 Ry

     iteration # 18     ecut=    60.00 Ry     beta= 0.60
     Davidson diagonalization with overlap
     c_bands:  4 eigenvalues not converged
     ethr =  1.00E-02,  avg # of iterations = 40.0

     negative rho (up, down):  1.130E+04 0.000E+00

     total cpu time spent up to now is     1778.7 secs

     total energy              =  -83172.96714978 Ry
     estimated scf accuracy    < 4308378.80948038 Ry

     iteration # 19     ecut=    60.00 Ry     beta= 0.60
     Davidson diagonalization with overlap
     ethr =  1.00E-02,  avg # of iterations = 11.0

     negative rho (up, down):  1.056E+04 0.000E+00

     total cpu time spent up to now is     1796.2 secs

     total energy              = -109722.09391349 Ry
     estimated scf accuracy    < 6738457.21099670 Ry

     iteration # 20     ecut=    60.00 Ry     beta= 0.60
     Davidson diagonalization with overlap
     ethr =  1.00E-02,  avg # of iterations =  7.0

     negative rho (up, down):  9.964E+03 0.000E+00

     total cpu time spent up to now is     1921.1 secs

     total energy              = -106374.88309202 Ry
     estimated scf accuracy    < 5330644.84476282 Ry

     iteration # 21     ecut=    60.00 Ry     beta= 0.60
     Davidson diagonalization with overlap
     ethr =  1.00E-02,  avg # of iterations =  7.0

     negative rho (up, down):  1.010E+04 0.000E+00

     total cpu time spent up to now is     2037.5 secs

     total energy              = -114397.33864477 Ry
     estimated scf accuracy    < 4052167.50227728 Ry

     iteration # 22     ecut=    60.00 Ry     beta= 0.60
     Davidson diagonalization with overlap
     ethr =  1.00E-02,  avg # of iterations =  6.0

     negative rho (up, down):  8.544E+03 0.000E+00

     total cpu time spent up to now is     2109.8 secs

     total energy              =  -87530.62613700 Ry
     estimated scf accuracy    < 4437304.73811059 Ry

     iteration # 23     ecut=    60.00 Ry     beta= 0.60
     Davidson diagonalization with overlap
     ethr =  1.00E-02,  avg # of iterations = 12.0

     negative rho (up, down):  6.335E+03 0.000E+00

     total cpu time spent up to now is     2249.9 secs

     total energy              =  -96982.41211443 Ry
     estimated scf accuracy    < 1638036.11470866 Ry

     iteration # 24     ecut=    60.00 Ry     beta= 0.60
     Davidson diagonalization with overlap
     c_bands:  4 eigenvalues not converged
     ethr =  1.00E-02,  avg # of iterations = 20.0

     negative rho (up, down):  5.446E+03 0.000E+00

     total cpu time spent up to now is     2304.7 secs

     total energy              =  -96390.33347315 Ry
     estimated scf accuracy    <   66606.73355045 Ry

     iteration # 25     ecut=    60.00 Ry     beta= 0.60
     Davidson diagonalization with overlap
     ethr =  1.00E-02,  avg # of iterations = 13.0

     negative rho (up, down):  5.770E+03 0.000E+00

     total cpu time spent up to now is     2374.7 secs

     total energy              =  -96275.02335801 Ry
     estimated scf accuracy    <   32326.86532473 Ry

     iteration # 26     ecut=    60.00 Ry     beta= 0.60
     Davidson diagonalization with overlap
     ethr =  1.00E-02,  avg # of iterations =  3.0

     negative rho (up, down):  5.733E+03 0.000E+00

     total cpu time spent up to now is     2436.6 secs

     total energy              =  -96203.51594575 Ry
     estimated scf accuracy    <     699.22264293 Ry

     iteration # 27     ecut=    60.00 Ry     beta= 0.60
     Davidson diagonalization with overlap
     ethr =  1.00E-02,  avg # of iterations =  6.0

     negative rho (up, down):  5.854E+03 0.000E+00

     total cpu time spent up to now is     2449.3 secs

     total energy              =  -96217.39745962 Ry
     estimated scf accuracy    <    1385.06174842 Ry

     iteration # 28     ecut=    60.00 Ry     beta= 0.60
     Davidson diagonalization with overlap
     ethr =  1.00E-02,  avg # of iterations =  2.0

     negative rho (up, down):  5.873E+03 0.000E+00

     total cpu time spent up to now is     2461.3 secs

     total energy              =  -96200.34722834 Ry
     estimated scf accuracy    <     356.72935775 Ry

     iteration # 29     ecut=    60.00 Ry     beta= 0.60
     Davidson diagonalization with overlap
     ethr =  1.00E-02,  avg # of iterations =  2.0

     negative rho (up, down):  5.853E+03 0.000E+00

     total cpu time spent up to now is     2531.7 secs

     total energy              =  -96218.56887400 Ry
     estimated scf accuracy    <     735.63119681 Ry

     iteration # 30     ecut=    60.00 Ry     beta= 0.60
     Davidson diagonalization with overlap
     ethr =  1.00E-02,  avg # of iterations =  1.0

     negative rho (up, down):  5.805E+03 0.000E+00

     total cpu time spent up to now is     2544.4 secs

     total energy              =  -96233.12274813 Ry
     estimated scf accuracy    <     367.70057416 Ry

     iteration # 31     ecut=    60.00 Ry     beta= 0.60
     Davidson diagonalization with overlap
     ethr =  1.00E-02,  avg # of iterations =  1.0

     negative rho (up, down):  5.813E+03 0.000E+00

     total cpu time spent up to now is     2635.0 secs

     total energy              =  -96232.20953350 Ry
     estimated scf accuracy    <      60.24196799 Ry

     iteration # 32     ecut=    60.00 Ry     beta= 0.60
     Davidson diagonalization with overlap
     ethr =  1.00E-02,  avg # of iterations =  1.0

     negative rho (up, down):  5.823E+03 0.000E+00

     total cpu time spent up to now is     2797.1 secs

     total energy              =  -96228.40103601 Ry
     estimated scf accuracy    <      43.02760315 Ry

     iteration # 33     ecut=    60.00 Ry     beta= 0.60
     Davidson diagonalization with overlap
     ethr =  1.00E-02,  avg # of iterations =  2.0

     negative rho (up, down):  5.815E+03 0.000E+00

     total cpu time spent up to now is     2944.1 secs

     total energy              =  -96231.77899318 Ry
     estimated scf accuracy    <      58.67964085 Ry

     iteration # 34     ecut=    60.00 Ry     beta= 0.60
     Davidson diagonalization with overlap
     ethr =  1.00E-02,  avg # of iterations =  2.0

     negative rho (up, down):  5.813E+03 0.000E+00

     total cpu time spent up to now is     3094.0 secs

     total energy              =  -96232.30767048 Ry
     estimated scf accuracy    <      32.42059348 Ry

     iteration # 35     ecut=    60.00 Ry     beta= 0.60
     Davidson diagonalization with overlap
     ethr =  1.00E-02,  avg # of iterations =  1.0

     negative rho (up, down):  5.811E+03 0.000E+00

     total cpu time spent up to now is     3203.4 secs

     total energy              =  -96232.31071112 Ry
     estimated scf accuracy    <      27.66365208 Ry

     iteration # 36     ecut=    60.00 Ry     beta= 0.60
     Davidson diagonalization with overlap
     ethr =  1.00E-02,  avg # of iterations =  1.0

     negative rho (up, down):  5.816E+03 0.000E+00

     total cpu time spent up to now is     3235.4 secs

     total energy              =  -96231.88851755 Ry
     estimated scf accuracy    <      32.27025558 Ry

     iteration # 37     ecut=    60.00 Ry     beta= 0.60
     Davidson diagonalization with overlap
     ethr =  1.00E-02,  avg # of iterations =  1.0

     negative rho (up, down):  5.816E+03 0.000E+00

     total cpu time spent up to now is     3247.5 secs

     total energy              =  -96231.65341404 Ry
     estimated scf accuracy    <      49.41988059 Ry

     iteration # 38     ecut=    60.00 Ry     beta= 0.60
     Davidson diagonalization with overlap
     ethr =  1.00E-02,  avg # of iterations =  1.0

     negative rho (up, down):  5.815E+03 0.000E+00

     total cpu time spent up to now is     3385.6 secs

     total energy              =  -96232.07355262 Ry
     estimated scf accuracy    <      45.17810375 Ry

     iteration # 39     ecut=    60.00 Ry     beta= 0.60
     Davidson diagonalization with overlap
     ethr =  1.00E-02,  avg # of iterations =  1.0

     negative rho (up, down):  5.815E+03 0.000E+00

     total cpu time spent up to now is     3438.9 secs

     total energy              =  -96232.06615215 Ry
     estimated scf accuracy    <      37.43651604 Ry

     iteration # 40     ecut=    60.00 Ry     beta= 0.60
     Davidson diagonalization with overlap
     ethr =  1.00E-02,  avg # of iterations =  1.0

     negative rho (up, down):  5.816E+03 0.000E+00

     total cpu time spent up to now is     3530.6 secs

     total energy              =  -96231.76427063 Ry
     estimated scf accuracy    <      36.61871496 Ry

     iteration # 41     ecut=    60.00 Ry     beta= 0.60
     Davidson diagonalization with overlap
     ethr =  1.00E-02,  avg # of iterations =  1.0

     negative rho (up, down):  5.815E+03 0.000E+00

     total cpu time spent up to now is     3641.7 secs

     total energy              =  -96232.11217977 Ry
     estimated scf accuracy    <      35.17315650 Ry

     iteration # 42     ecut=    60.00 Ry     beta= 0.60
     Davidson diagonalization with overlap
     ethr =  1.00E-02,  avg # of iterations =  1.0

     negative rho (up, down):  5.814E+03 0.000E+00

     total cpu time spent up to now is     3773.5 secs

     total energy              =  -96232.20315909 Ry
     estimated scf accuracy    <      45.22964153 Ry

     iteration # 43     ecut=    60.00 Ry     beta= 0.60
     Davidson diagonalization with overlap
     ethr =  1.00E-02,  avg # of iterations =  1.0

     negative rho (up, down):  5.815E+03 0.000E+00

     total cpu time spent up to now is     3935.5 secs

     total energy              =  -96232.24436111 Ry
     estimated scf accuracy    <      37.25570864 Ry

     iteration # 44     ecut=    60.00 Ry     beta= 0.60
     Davidson diagonalization with overlap
     ethr =  1.00E-02,  avg # of iterations =  1.0

     negative rho (up, down):  5.812E+03 0.000E+00

     total cpu time spent up to now is     3965.5 secs

     total energy              =  -96232.95152378 Ry
     estimated scf accuracy    <      40.77384286 Ry

     iteration # 45     ecut=    60.00 Ry     beta= 0.60
     Davidson diagonalization with overlap
     ethr =  1.00E-02,  avg # of iterations =  1.0

     negative rho (up, down):  5.812E+03 0.000E+00

     total cpu time spent up to now is     3977.2 secs

     total energy              =  -96232.72297176 Ry
     estimated scf accuracy    <      74.03776213 Ry

     iteration # 46     ecut=    60.00 Ry     beta= 0.60
     Davidson diagonalization with overlap
     ethr =  1.00E-02,  avg # of iterations =  1.0

     negative rho (up, down):  5.810E+03 0.000E+00

     total cpu time spent up to now is     4084.2 secs

     total energy              =  -96232.76190055 Ry
     estimated scf accuracy    <      53.41308649 Ry

     iteration # 47     ecut=    60.00 Ry     beta= 0.60
     Davidson diagonalization with overlap
     ethr =  1.00E-02,  avg # of iterations =  1.0

     negative rho (up, down):  5.808E+03 0.000E+00

     total cpu time spent up to now is     4286.4 secs

     total energy              =  -96231.96896745 Ry
     estimated scf accuracy    <      46.55461169 Ry

     iteration # 48     ecut=    60.00 Ry     beta= 0.60
     Davidson diagonalization with overlap
     ethr =  1.00E-02,  avg # of iterations =  1.0

     negative rho (up, down):  5.814E+03 0.000E+00

     total cpu time spent up to now is     4458.1 secs

     total energy              =  -96232.03828912 Ry
     estimated scf accuracy    <      49.14630036 Ry

     iteration # 49     ecut=    60.00 Ry     beta= 0.60
     Davidson diagonalization with overlap
     ethr =  1.00E-02,  avg # of iterations =  2.0

     negative rho (up, down):  5.816E+03 0.000E+00

     total cpu time spent up to now is     4549.3 secs

     total energy              =  -96231.77290746 Ry
     estimated scf accuracy    <      30.38055870 Ry

     iteration # 50     ecut=    60.00 Ry     beta= 0.60
     Davidson diagonalization with overlap
     ethr =  1.00E-02,  avg # of iterations =  1.0

     negative rho (up, down):  5.816E+03 0.000E+00

     total cpu time spent up to now is     4568.7 secs

     total energy              =  -96231.92929707 Ry
     estimated scf accuracy    <      26.87107369 Ry

     iteration # 51     ecut=    60.00 Ry     beta= 0.60
     Davidson diagonalization with overlap
     ethr =  1.00E-02,  avg # of iterations =  1.0

     negative rho (up, down):  5.811E+03 0.000E+00

     total cpu time spent up to now is     4580.8 secs

     total energy              =  -96232.94986660 Ry
     estimated scf accuracy    <      29.38477289 Ry

     iteration # 52     ecut=    60.00 Ry     beta= 0.60
     Davidson diagonalization with overlap
     ethr =  1.00E-02,  avg # of iterations =  2.0

     negative rho (up, down):  5.812E+03 0.000E+00

     total cpu time spent up to now is     4624.7 secs

     total energy              =  -96232.46166069 Ry
     estimated scf accuracy    <      80.74017979 Ry

     iteration # 53     ecut=    60.00 Ry     beta= 0.60
     Davidson diagonalization with overlap
     ethr =  1.00E-02,  avg # of iterations =  1.0

     negative rho (up, down):  5.813E+03 0.000E+00

     total cpu time spent up to now is     4699.1 secs

     total energy              =  -96232.37077916 Ry
     estimated scf accuracy    <      35.48177017 Ry

     iteration # 54     ecut=    60.00 Ry     beta= 0.60
     Davidson diagonalization with overlap
     ethr =  1.00E-02,  avg # of iterations =  1.0

     negative rho (up, down):  5.812E+03 0.000E+00

     total cpu time spent up to now is     4712.8 secs

     total energy              =  -96232.62196316 Ry
     estimated scf accuracy    <      33.79306071 Ry

     iteration # 55     ecut=    60.00 Ry     beta= 0.60
     Davidson diagonalization with overlap
     ethr =  1.00E-02,  avg # of iterations =  1.0

     negative rho (up, down):  5.814E+03 0.000E+00

     total cpu time spent up to now is     4724.9 secs

     total energy              =  -96232.31759405 Ry
     estimated scf accuracy    <      35.34982545 Ry

     iteration # 56     ecut=    60.00 Ry     beta= 0.60
     Davidson diagonalization with overlap
     ethr =  1.00E-02,  avg # of iterations =  1.0

     negative rho (up, down):  5.811E+03 0.000E+00

     total cpu time spent up to now is     4741.0 secs

     total energy              =  -96232.74418392 Ry
     estimated scf accuracy    <      35.20726773 Ry

     iteration # 57     ecut=    60.00 Ry     beta= 0.60
     Davidson diagonalization with overlap
     ethr =  1.00E-02,  avg # of iterations =  2.0

     negative rho (up, down):  5.814E+03 0.000E+00

     total cpu time spent up to now is     4753.4 secs

     total energy              =  -96231.81267094 Ry
     estimated scf accuracy    <     121.44625041 Ry

     iteration # 58     ecut=    60.00 Ry     beta= 0.60
     Davidson diagonalization with overlap
     ethr =  1.00E-02,  avg # of iterations =  2.0

     negative rho (up, down):  5.814E+03 0.000E+00

     total cpu time spent up to now is     4765.0 secs

     total energy              =  -96232.25235596 Ry
     estimated scf accuracy    <      36.22159295 Ry

     iteration # 59     ecut=    60.00 Ry     beta= 0.60
     Davidson diagonalization with overlap
     ethr =  1.00E-02,  avg # of iterations =  1.0

     negative rho (up, down):  5.814E+03 0.000E+00

     total cpu time spent up to now is     4776.3 secs

     total energy              =  -96232.31437866 Ry
     estimated scf accuracy    <      37.02712493 Ry

     iteration # 60     ecut=    60.00 Ry     beta= 0.60
     Davidson diagonalization with overlap
     ethr =  1.00E-02,  avg # of iterations =  1.0

     negative rho (up, down):  5.814E+03 0.000E+00

     total cpu time spent up to now is     4788.5 secs

     total energy              =  -96232.29817718 Ry
     estimated scf accuracy    <      38.99336186 Ry

     iteration # 61     ecut=    60.00 Ry     beta= 0.60
     Davidson diagonalization with overlap
     ethr =  1.00E-02,  avg # of iterations =  1.0

     negative rho (up, down):  5.813E+03 0.000E+00

     total cpu time spent up to now is     4880.0 secs

     total energy              =  -96232.66884281 Ry
     estimated scf accuracy    <      32.00739199 Ry

     iteration # 62     ecut=    60.00 Ry     beta= 0.60
     Davidson diagonalization with overlap
     ethr =  1.00E-02,  avg # of iterations =  1.0

     negative rho (up, down):  5.813E+03 0.000E+00

     total cpu time spent up to now is     4958.5 secs

     total energy              =  -96232.38682969 Ry
     estimated scf accuracy    <      52.15586918 Ry

     iteration # 63     ecut=    60.00 Ry     beta= 0.60
     Davidson diagonalization with overlap
     ethr =  1.00E-02,  avg # of iterations =  1.0

     negative rho (up, down):  5.814E+03 0.000E+00

     total cpu time spent up to now is     5036.9 secs

     total energy              =  -96232.36530029 Ry
     estimated scf accuracy    <      37.40196658 Ry

     iteration # 64     ecut=    60.00 Ry     beta= 0.60
     Davidson diagonalization with overlap
     ethr =  1.00E-02,  avg # of iterations =  1.0

     negative rho (up, down):  5.814E+03 0.000E+00

     total cpu time spent up to now is     5061.4 secs

     total energy              =  -96232.30267726 Ry
     estimated scf accuracy    <      36.86204871 Ry

     iteration # 65     ecut=    60.00 Ry     beta= 0.60
     Davidson diagonalization with overlap
     ethr =  1.00E-02,  avg # of iterations =  1.0

     negative rho (up, down):  5.814E+03 0.000E+00

     total cpu time spent up to now is     5073.5 secs

     total energy              =  -96232.26792679 Ry
     estimated scf accuracy    <      30.30032381 Ry

     iteration # 66     ecut=    60.00 Ry     beta= 0.60
     Davidson diagonalization with overlap
     ethr =  1.00E-02,  avg # of iterations =  1.0

     negative rho (up, down):  5.816E+03 0.000E+00

     total cpu time spent up to now is     5228.5 secs

     total energy              =  -96232.15418912 Ry
     estimated scf accuracy    <      30.91589029 Ry

     iteration # 67     ecut=    60.00 Ry     beta= 0.60
     Davidson diagonalization with overlap
     ethr =  1.00E-02,  avg # of iterations =  1.0

     negative rho (up, down):  5.813E+03 0.000E+00

     total cpu time spent up to now is     5257.1 secs

     total energy              =  -96232.30035281 Ry
     estimated scf accuracy    <      62.20819343 Ry

     iteration # 68     ecut=    60.00 Ry     beta= 0.60
     Davidson diagonalization with overlap
     ethr =  1.00E-02,  avg # of iterations =  1.0

     negative rho (up, down):  5.813E+03 0.000E+00

     total cpu time spent up to now is     5269.2 secs

     total energy              =  -96232.39430281 Ry
     estimated scf accuracy    <      35.44414604 Ry

     iteration # 69     ecut=    60.00 Ry     beta= 0.60
     Davidson diagonalization with overlap
     ethr =  1.00E-02,  avg # of iterations =  1.0

     negative rho (up, down):  5.813E+03 0.000E+00

     total cpu time spent up to now is     5281.2 secs

     total energy              =  -96232.35062607 Ry
     estimated scf accuracy    <      32.90676591 Ry

     iteration # 70     ecut=    60.00 Ry     beta= 0.60
     Davidson diagonalization with overlap
     ethr =  1.00E-02,  avg # of iterations =  1.0

     negative rho (up, down):  5.813E+03 0.000E+00

     total cpu time spent up to now is     5292.8 secs

     total energy              =  -96232.36193065 Ry
     estimated scf accuracy    <      34.29699417 Ry

     iteration # 71     ecut=    60.00 Ry     beta= 0.60
     Davidson diagonalization with overlap
     ethr =  1.00E-02,  avg # of iterations =  1.0

     negative rho (up, down):  5.813E+03 0.000E+00

     total cpu time spent up to now is     5304.8 secs

     total energy              =  -96232.29339037 Ry
     estimated scf accuracy    <      30.32669576 Ry

     iteration # 72     ecut=    60.00 Ry     beta= 0.60
     Davidson diagonalization with overlap
     ethr =  1.00E-02,  avg # of iterations =  1.0

     negative rho (up, down):  5.813E+03 0.000E+00

     total cpu time spent up to now is     5318.6 secs

     total energy              =  -96232.23467121 Ry
     estimated scf accuracy    <      25.35987863 Ry

     iteration # 73     ecut=    60.00 Ry     beta= 0.60
     Davidson diagonalization with overlap
     ethr =  1.00E-02,  avg # of iterations =  1.0

     negative rho (up, down):  5.812E+03 0.000E+00

     total cpu time spent up to now is     5368.4 secs

     total energy              =  -96232.47044985 Ry
     estimated scf accuracy    <      21.44247070 Ry

     iteration # 74     ecut=    60.00 Ry     beta= 0.60
     Davidson diagonalization with overlap
     ethr =  1.00E-02,  avg # of iterations =  1.0

     negative rho (up, down):  5.813E+03 0.000E+00

     total cpu time spent up to now is     5379.9 secs

     total energy              =  -96231.60800720 Ry
     estimated scf accuracy    <      40.86783827 Ry

     iteration # 75     ecut=    60.00 Ry     beta= 0.60
     Davidson diagonalization with overlap
     ethr =  1.00E-02,  avg # of iterations =  2.0

     negative rho (up, down):  5.814E+03 0.000E+00

     total cpu time spent up to now is     5391.9 secs

     total energy              =  -96231.98185452 Ry
     estimated scf accuracy    <      20.27749431 Ry

     iteration # 76     ecut=    60.00 Ry     beta= 0.60
     Davidson diagonalization with overlap
     ethr =  1.00E-02,  avg # of iterations =  1.0

     negative rho (up, down):  5.812E+03 0.000E+00

     total cpu time spent up to now is     5410.6 secs

     total energy              =  -96231.95044638 Ry
     estimated scf accuracy    <      25.50511600 Ry

     iteration # 77     ecut=    60.00 Ry     beta= 0.60
     Davidson diagonalization with overlap
     ethr =  1.00E-02,  avg # of iterations =  2.0

     negative rho (up, down):  5.814E+03 0.000E+00

     total cpu time spent up to now is     5458.6 secs

     total energy              =  -96232.04065142 Ry
     estimated scf accuracy    <      62.64301698 Ry

     iteration # 78     ecut=    60.00 Ry     beta= 0.60
     Davidson diagonalization with overlap
     ethr =  1.00E-02,  avg # of iterations =  2.0

     negative rho (up, down):  5.814E+03 0.000E+00

     total cpu time spent up to now is     5561.7 secs

     total energy              =  -96231.88392051 Ry
     estimated scf accuracy    <      32.08967605 Ry

     iteration # 79     ecut=    60.00 Ry     beta= 0.60
     Davidson diagonalization with overlap
     ethr =  1.00E-02,  avg # of iterations =  2.0

     negative rho (up, down):  5.813E+03 0.000E+00

     total cpu time spent up to now is     5723.3 secs

     total energy              =  -96232.12075467 Ry
     estimated scf accuracy    <      29.03782683 Ry

     iteration # 80     ecut=    60.00 Ry     beta= 0.60
     Davidson diagonalization with overlap
     ethr =  1.00E-02,  avg # of iterations =  1.0

     negative rho (up, down):  5.812E+03 0.000E+00

     total cpu time spent up to now is     5827.6 secs

     total energy              =  -96232.34362275 Ry
     estimated scf accuracy    <      31.38235909 Ry

     iteration # 81     ecut=    60.00 Ry     beta= 0.60
     Davidson diagonalization with overlap
     ethr =  1.00E-02,  avg # of iterations =  1.0

     negative rho (up, down):  5.813E+03 0.000E+00

     total cpu time spent up to now is     5854.0 secs

     total energy              =  -96232.20077646 Ry
     estimated scf accuracy    <      38.56671108 Ry

     iteration # 82     ecut=    60.00 Ry     beta= 0.60
     Davidson diagonalization with overlap
     ethr =  1.00E-02,  avg # of iterations =  1.0

     negative rho (up, down):  5.814E+03 0.000E+00

     total cpu time spent up to now is     5865.8 secs

     total energy              =  -96232.07748885 Ry
     estimated scf accuracy    <      39.10798249 Ry

     iteration # 83     ecut=    60.00 Ry     beta= 0.60
     Davidson diagonalization with overlap
     ethr =  1.00E-02,  avg # of iterations =  1.0

     negative rho (up, down):  5.812E+03 0.000E+00

     total cpu time spent up to now is     5877.8 secs

     total energy              =  -96232.18833845 Ry
     estimated scf accuracy    <      45.75861159 Ry

     iteration # 84     ecut=    60.00 Ry     beta= 0.60
     Davidson diagonalization with overlap
     ethr =  1.00E-02,  avg # of iterations =  1.0

     negative rho (up, down):  5.813E+03 0.000E+00

     total cpu time spent up to now is     5890.4 secs

     total energy              =  -96232.01403220 Ry
     estimated scf accuracy    <      26.37566834 Ry

     iteration # 85     ecut=    60.00 Ry     beta= 0.60
     Davidson diagonalization with overlap
     ethr =  1.00E-02,  avg # of iterations =  1.0

     negative rho (up, down):  5.813E+03 0.000E+00

     total cpu time spent up to now is     5902.4 secs

     total energy              =  -96231.59556797 Ry
     estimated scf accuracy    <      24.41989641 Ry

     iteration # 86     ecut=    60.00 Ry     beta= 0.60
     Davidson diagonalization with overlap
     ethr =  1.00E-02,  avg # of iterations =  2.0

     negative rho (up, down):  5.813E+03 0.000E+00

     total cpu time spent up to now is     5937.2 secs

     total energy              =  -96231.22207776 Ry
     estimated scf accuracy    <      21.27141741 Ry

     iteration # 87     ecut=    60.00 Ry     beta= 0.60
     Davidson diagonalization with overlap
     ethr =  1.00E-02,  avg # of iterations =  2.0

     negative rho (up, down):  5.813E+03 0.000E+00

     total cpu time spent up to now is     6003.9 secs

     total energy              =  -96231.83222540 Ry
     estimated scf accuracy    <      30.89801185 Ry

     iteration # 88     ecut=    60.00 Ry     beta= 0.60
     Davidson diagonalization with overlap
     ethr =  1.00E-02,  avg # of iterations =  1.0

     negative rho (up, down):  5.812E+03 0.000E+00

     total cpu time spent up to now is     6017.2 secs

     total energy              =  -96231.14295866 Ry
     estimated scf accuracy    <      34.50285473 Ry

     iteration # 89     ecut=    60.00 Ry     beta= 0.60
     Davidson diagonalization with overlap
     ethr =  1.00E-02,  avg # of iterations =  2.0

     negative rho (up, down):  5.811E+03 0.000E+00

     total cpu time spent up to now is     6043.3 secs

     total energy              =  -96230.50748289 Ry
     estimated scf accuracy    <      17.66638453 Ry

     iteration # 90     ecut=    60.00 Ry     beta= 0.60
     Davidson diagonalization with overlap
     ethr =  1.00E-02,  avg # of iterations =  2.0

     negative rho (up, down):  5.811E+03 0.000E+00

     total cpu time spent up to now is     6057.7 secs

     total energy              =  -96231.26822090 Ry
     estimated scf accuracy    <       3.23069119 Ry

     iteration # 91     ecut=    60.00 Ry     beta= 0.60
     Davidson diagonalization with overlap
     ethr =  1.84E-03,  avg # of iterations =  6.0

     negative rho (up, down):  5.812E+03 0.000E+00

     total cpu time spent up to now is     6072.8 secs

     total energy              =  -96231.93672071 Ry
     estimated scf accuracy    <       9.21414637 Ry

     iteration # 92     ecut=    60.00 Ry     beta= 0.60
     Davidson diagonalization with overlap
     ethr =  1.84E-03,  avg # of iterations =  2.0

     negative rho (up, down):  5.813E+03 0.000E+00

     total cpu time spent up to now is     6087.7 secs

     total energy              =  -96230.60101374 Ry
     estimated scf accuracy    <      32.59802524 Ry

     iteration # 93     ecut=    60.00 Ry     beta= 0.60
     Davidson diagonalization with overlap
     ethr =  1.84E-03,  avg # of iterations =  5.0

     negative rho (up, down):  5.813E+03 0.000E+00

     total cpu time spent up to now is     6101.6 secs

     total energy              =  -96231.99071976 Ry
     estimated scf accuracy    <      28.22258686 Ry

     iteration # 94     ecut=    60.00 Ry     beta= 0.60
     Davidson diagonalization with overlap
     ethr =  1.84E-03,  avg # of iterations =  1.0

     negative rho (up, down):  5.813E+03 0.000E+00

     total cpu time spent up to now is     6127.7 secs

     total energy              =  -96231.99406684 Ry
     estimated scf accuracy    <      17.52033650 Ry

     iteration # 95     ecut=    60.00 Ry     beta= 0.60
     Davidson diagonalization with overlap
     ethr =  1.84E-03,  avg # of iterations =  1.0

     negative rho (up, down):  5.812E+03 0.000E+00

     total cpu time spent up to now is     6140.0 secs

     total energy              =  -96230.81584294 Ry
     estimated scf accuracy    <      20.81251491 Ry

     iteration # 96     ecut=    60.00 Ry     beta= 0.60
     Davidson diagonalization with overlap
     ethr =  1.84E-03,  avg # of iterations =  3.0

     negative rho (up, down):  5.812E+03 0.000E+00

     total cpu time spent up to now is     6153.2 secs

     total energy              =  -96230.82394265 Ry
     estimated scf accuracy    <       3.74940997 Ry

     iteration # 97     ecut=    60.00 Ry     beta= 0.60
     Davidson diagonalization with overlap
     ethr =  1.84E-03,  avg # of iterations =  2.0

     negative rho (up, down):  5.812E+03 0.000E+00

     total cpu time spent up to now is     6166.2 secs

     total energy              =  -96231.64922685 Ry
     estimated scf accuracy    <       7.53271825 Ry

     iteration # 98     ecut=    60.00 Ry     beta= 0.60
     Davidson diagonalization with overlap
     ethr =  1.84E-03,  avg # of iterations =  2.0

     negative rho (up, down):  5.812E+03 0.000E+00

     total cpu time spent up to now is     6179.0 secs

     total energy              =  -96231.39014698 Ry
     estimated scf accuracy    <      20.15098635 Ry

     iteration # 99     ecut=    60.00 Ry     beta= 0.60
     Davidson diagonalization with overlap
     ethr =  1.84E-03,  avg # of iterations =  2.0

     negative rho (up, down):  5.812E+03 0.000E+00

     total cpu time spent up to now is     6238.8 secs

     total energy              =  -96231.62948185 Ry
     estimated scf accuracy    <      15.99430143 Ry

     iteration #100     ecut=    60.00 Ry     beta= 0.60
     Davidson diagonalization with overlap
     ethr =  1.84E-03,  avg # of iterations =  1.0

     negative rho (up, down):  5.812E+03 0.000E+00

     total cpu time spent up to now is     6250.5 secs

     total energy              =  -96231.80207608 Ry
     estimated scf accuracy    <      18.65728166 Ry

     End of self-consistent calculation

     convergence NOT achieved after 100 iterations: stopping

     Writing output data file ./out/CsIhex.save/
     Message from routine punch:
     wavefunctions written to file
 
     init_run     :     30.92s CPU     31.58s WALL (       1 calls)
     electrons    :   6056.44s CPU   6201.35s WALL (       1 calls)

     Called by init_run:
     wfcinit      :     15.83s CPU     15.98s WALL (       1 calls)
     wfcinit:atom :      0.00s CPU      0.00s WALL (       1 calls)
     wfcinit:wfcr :     15.82s CPU     15.95s WALL (       1 calls)
     potinit      :      5.40s CPU      5.46s WALL (       1 calls)
     hinit0       :      4.57s CPU      4.82s WALL (       1 calls)

     Called by electrons:
     c_bands      :   1866.85s CPU   1941.17s WALL (     101 calls)
     sum_band     :    359.18s CPU    397.20s WALL (     101 calls)
     v_of_rho     :     10.75s CPU     11.56s WALL (     101 calls)
     v_h          :      2.49s CPU      2.51s WALL (     101 calls)
     v_xc         :      8.25s CPU      9.02s WALL (     101 calls)
     newd         :    267.65s CPU    286.69s WALL (     101 calls)
     PAW_pot      :    123.32s CPU    123.89s WALL (     101 calls)
     mix_rho      :   3385.94s CPU   3393.75s WALL (     101 calls)

     Called by c_bands:
     init_us_2    :      3.43s CPU      3.48s WALL (     203 calls)
     cegterg      :   1822.47s CPU   1895.11s WALL (     114 calls)

     Called by sum_band:
     sum_band:wei :      0.00s CPU      0.00s WALL (     101 calls)
     sum_band:loo :    216.33s CPU    219.50s WALL (     101 calls)
     sum_band:buf :      0.00s CPU      0.00s WALL (     101 calls)
     sum_band:ini :      1.86s CPU      1.88s WALL (     101 calls)
     sum_band:cal :     38.78s CPU     38.99s WALL (     101 calls)
     sum_band:bec :     10.00s CPU     10.01s WALL (     101 calls)
     addusdens    :    100.68s CPU    135.35s WALL (     101 calls)
     addusd:skk   :      0.19s CPU      0.22s WALL (     303 calls)
     addusd:dgemm :     39.68s CPU     73.91s WALL (     303 calls)
     addusd:qvan2 :     59.51s CPU     59.62s WALL (     303 calls)

     Called by *egterg:
     cdiaghg      :     45.14s CPU     45.88s WALL (     734 calls)
     cegterg:over :    126.65s CPU    129.54s WALL (     621 calls)
     cegterg:upda :     19.99s CPU     20.30s WALL (     621 calls)
     cegterg:last :     47.69s CPU     48.62s WALL (     364 calls)
     h_psi        :   1444.52s CPU   1509.06s WALL (     736 calls)
     s_psi        :     88.95s CPU     90.84s WALL (     736 calls)
     g_psi        :      0.68s CPU      0.70s WALL (     621 calls)

     Called by h_psi:
     h_psi:calbec :    151.18s CPU    156.76s WALL (     736 calls)
     vloc_psi     :   1213.38s CPU   1270.55s WALL (     736 calls)
     add_vuspsi   :     77.46s CPU     79.15s WALL (     736 calls)

     General routines
     calbec       :    189.95s CPU    195.74s WALL (     837 calls)
     fft          :      9.55s CPU      9.77s WALL (    1416 calls)
     ffts         :    435.90s CPU    438.69s WALL (   71548 calls)
     fftw         :   1353.88s CPU   1413.61s WALL (  328876 calls)
     davcio       :      0.00s CPU      0.05s WALL (      19 calls)
 
     Parallel routines
     fft_scatt_xy :     18.82s CPU     19.14s WALL (  401840 calls)
     fft_scatt_yz :   1669.74s CPU   1729.42s WALL (  401840 calls)

     PAW routines
     PAW_pot      :    123.32s CPU    123.89s WALL (     101 calls)
     PAW_symme    :     16.91s CPU     16.97s WALL (     202 calls)
 
     PWSCF        :      1h41m CPU      1h44m WALL

 
   This run was terminated on:  15:30: 9  18Jan2021            

=------------------------------------------------------------------------------=
   JOB DONE.
=------------------------------------------------------------------------------=
