
     Program PWSCF v.6.4.1 starts on 24Jan2021 at 20:15:57 

     This program is part of the open-source Quantum ESPRESSO suite
     for quantum simulation of materials; please cite
         "P. Giannozzi et al., J. Phys.:Condens. Matter 21 395502 (2009);
         "P. Giannozzi et al., J. Phys.:Condens. Matter 29 465901 (2017);
          URL http://www.quantum-espresso.org", 
     in publications or presentations arising from this work. More details at
     http://www.quantum-espresso.org/quote

     Parallel version (MPI & OpenMP), running on      48 processor cores
     Number of MPI processes:                24
     Threads/MPI process:                     2

     MPI processes distributed on     1 nodes
     R & G space division:  proc/nbgrp/npool/nimage =      24
     Waiting for input...
     Reading input from standard input

     Current dimensions of program PWSCF are:
     Max number of different atomic species (ntypx) = 10
     Max number of k-points (npk) =  40000
     Max angular momentum in pseudopotentials (lmaxx) =  3
               file Sn.rel-pbesol-dn-kjpaw_psl.1.0.0.UPF: wavefunction(s)  5S 5P 5P 4D 4D renormalized
               file I.rel-pbesol-n-kjpaw_psl.1.0.0.UPF: wavefunction(s)  5S renormalized

     Subspace diagonalization in iterative solution of the eigenvalue problem:
     one sub-group per band group will be used
     scalapack distributed-memory algorithm (size of sub-group:  3*  3 procs)

 
     Parallelization info
     --------------------
     sticks:   dense  smooth     PW     G-vecs:    dense   smooth      PW
     Min         222     148     40                12208     6652     958
     Max         223     149     41                12211     6655     961
     Sum        5345    3569    973               293027   159699   23031
 

     Title: 
     CsIsalt                                                                    


     bravais-lattice index     =            1
     lattice parameter (alat)  =      12.6355  a.u.
     unit-cell volume          =    2017.3401 (a.u.)^3
     number of atoms/cell      =            5
     number of atomic types    =            2
     number of electrons       =        42.00
     number of Kohn-Sham states=           42
     kinetic-energy cutoff     =      70.0000  Ry
     charge density cutoff     =     420.0000  Ry
     convergence threshold     =      1.0E-06
     mixing beta               =       0.3500
     number of iterations used =            8  plain     mixing
     Exchange-correlation      = SLA PW PSX PSC ( 1  4 10  8 0 0)
     Non magnetic calculation with spin-orbit


     celldm(1)=  12.635518  celldm(2)=   0.000000  celldm(3)=   0.000000
     celldm(4)=   0.000000  celldm(5)=   0.000000  celldm(6)=   0.000000

     crystal axes: (cart. coord. in units of alat)
               a(1) = (   1.000000   0.000000   0.000000 )  
               a(2) = (   0.000000   1.000000   0.000000 )  
               a(3) = (   0.000000   0.000000   1.000000 )  

     reciprocal axes: (cart. coord. in units 2 pi/alat)
               b(1) = (  1.000000  0.000000  0.000000 )  
               b(2) = (  0.000000  1.000000  0.000000 )  
               b(3) = (  0.000000  0.000000  1.000000 )  


     PseudoPot. # 1 for Sn read from file:
     /marconi_scratch/userexternal/cmalosso/degironcoli/pseudo/Sn.rel-pbesol-dn-kjpaw_psl.1.0.0.UPF
     MD5 check sum: e69eff64f15ae39ad43ef58bacbfdf88
     Pseudo is Projector augmented-wave + core cor, Zval = 14.0
     Generated using "atomic" code by A. Dal Corso v.6.3
     Shape of augmentation charge: PSQ
     Using radial grid of 1243 points, 10 beta functions with: 
                l(1) =   0
                l(2) =   0
                l(3) =   1
                l(4) =   1
                l(5) =   1
                l(6) =   1
                l(7) =   2
                l(8) =   2
                l(9) =   2
               l(10) =   2
     Q(r) pseudized with 0 coefficients 


     PseudoPot. # 2 for I  read from file:
     /marconi_scratch/userexternal/cmalosso/degironcoli/pseudo/I.rel-pbesol-n-kjpaw_psl.1.0.0.UPF
     MD5 check sum: 4478c427bd443f303eca1937a163b991
     Pseudo is Projector augmented-wave + core cor, Zval =  7.0
     Generated using "atomic" code by A. Dal Corso v.6.3
     Shape of augmentation charge: PSQ
     Using radial grid of 1247 points, 10 beta functions with: 
                l(1) =   0
                l(2) =   0
                l(3) =   1
                l(4) =   1
                l(5) =   1
                l(6) =   1
                l(7) =   2
                l(8) =   2
                l(9) =   2
               l(10) =   2
     Q(r) pseudized with 0 coefficients 


     atomic species   valence    mass     pseudopotential
        Sn            14.00   118.70000     Sn( 1.00)
        I              7.00   126.90000     I ( 1.00)

     24 Sym. Ops. (no inversion) found


                                    s                        frac. trans.

      isym =  1     identity                                     

 cryst.   s( 1) = (     1          0          0      )
                  (     0          1          0      )
                  (     0          0          1      )

 cart.    s( 1) = (  1.0000000  0.0000000  0.0000000 )
                  (  0.0000000  1.0000000  0.0000000 )
                  (  0.0000000  0.0000000  1.0000000 )


      isym =  2     180 deg rotation - cart. axis [0,0,1]        

 cryst.   s( 2) = (    -1          0          0      )
                  (     0         -1          0      )
                  (     0          0          1      )

 cart.    s( 2) = ( -1.0000000  0.0000000  0.0000000 )
                  (  0.0000000 -1.0000000  0.0000000 )
                  (  0.0000000  0.0000000  1.0000000 )


      isym =  3     180 deg rotation - cart. axis [0,1,0]        

 cryst.   s( 3) = (    -1          0          0      )
                  (     0          1          0      )
                  (     0          0         -1      )

 cart.    s( 3) = ( -1.0000000  0.0000000  0.0000000 )
                  (  0.0000000  1.0000000  0.0000000 )
                  (  0.0000000  0.0000000 -1.0000000 )


      isym =  4     180 deg rotation - cart. axis [1,0,0]        

 cryst.   s( 4) = (     1          0          0      )
                  (     0         -1          0      )
                  (     0          0         -1      )

 cart.    s( 4) = (  1.0000000  0.0000000  0.0000000 )
                  (  0.0000000 -1.0000000  0.0000000 )
                  (  0.0000000  0.0000000 -1.0000000 )


      isym =  5     120 deg rotation - cart. axis [-1,-1,-1]     

 cryst.   s( 5) = (     0          0          1      )
                  (     1          0          0      )
                  (     0          1          0      )

 cart.    s( 5) = (  0.0000000  1.0000000  0.0000000 )
                  (  0.0000000  0.0000000  1.0000000 )
                  (  1.0000000  0.0000000  0.0000000 )


      isym =  6     120 deg rotation - cart. axis [-1,1,1]       

 cryst.   s( 6) = (     0          0         -1      )
                  (    -1          0          0      )
                  (     0          1          0      )

 cart.    s( 6) = (  0.0000000 -1.0000000  0.0000000 )
                  (  0.0000000  0.0000000  1.0000000 )
                  ( -1.0000000  0.0000000  0.0000000 )


      isym =  7     120 deg rotation - cart. axis [1,1,-1]       

 cryst.   s( 7) = (     0          0         -1      )
                  (     1          0          0      )
                  (     0         -1          0      )

 cart.    s( 7) = (  0.0000000  1.0000000  0.0000000 )
                  (  0.0000000  0.0000000 -1.0000000 )
                  ( -1.0000000  0.0000000  0.0000000 )


      isym =  8     120 deg rotation - cart. axis [1,-1,1]       

 cryst.   s( 8) = (     0          0          1      )
                  (    -1          0          0      )
                  (     0         -1          0      )

 cart.    s( 8) = (  0.0000000 -1.0000000  0.0000000 )
                  (  0.0000000  0.0000000 -1.0000000 )
                  (  1.0000000  0.0000000  0.0000000 )


      isym =  9     120 deg rotation - cart. axis [1,1,1]        

 cryst.   s( 9) = (     0          1          0      )
                  (     0          0          1      )
                  (     1          0          0      )

 cart.    s( 9) = (  0.0000000  0.0000000  1.0000000 )
                  (  1.0000000  0.0000000  0.0000000 )
                  (  0.0000000  1.0000000  0.0000000 )


      isym = 10     120 deg rotation - cart. axis [-1,1,-1]      

 cryst.   s(10) = (     0         -1          0      )
                  (     0          0         -1      )
                  (     1          0          0      )

 cart.    s(10) = (  0.0000000  0.0000000  1.0000000 )
                  ( -1.0000000  0.0000000  0.0000000 )
                  (  0.0000000 -1.0000000  0.0000000 )


      isym = 11     120 deg rotation - cart. axis [1,-1,-1]      

 cryst.   s(11) = (     0         -1          0      )
                  (     0          0          1      )
                  (    -1          0          0      )

 cart.    s(11) = (  0.0000000  0.0000000 -1.0000000 )
                  ( -1.0000000  0.0000000  0.0000000 )
                  (  0.0000000  1.0000000  0.0000000 )


      isym = 12     120 deg rotation - cart. axis [-1,-1,1]      

 cryst.   s(12) = (     0          1          0      )
                  (     0          0         -1      )
                  (    -1          0          0      )

 cart.    s(12) = (  0.0000000  0.0000000 -1.0000000 )
                  (  1.0000000  0.0000000  0.0000000 )
                  (  0.0000000 -1.0000000  0.0000000 )


      isym = 13     inv. 180 deg rotation - cart. axis [1,1,0]   

 cryst.   s(13) = (     0         -1          0      )
                  (    -1          0          0      )
                  (     0          0          1      )

 cart.    s(13) = (  0.0000000 -1.0000000  0.0000000 )
                  ( -1.0000000  0.0000000  0.0000000 )
                  (  0.0000000  0.0000000  1.0000000 )


      isym = 14     inv. 180 deg rotation - cart. axis [1,-1,0]  

 cryst.   s(14) = (     0          1          0      )
                  (     1          0          0      )
                  (     0          0          1      )

 cart.    s(14) = (  0.0000000  1.0000000  0.0000000 )
                  (  1.0000000  0.0000000  0.0000000 )
                  (  0.0000000  0.0000000  1.0000000 )


      isym = 15     inv.  90 deg rotation - cart. axis [0,0,-1]  

 cryst.   s(15) = (     0          1          0      )
                  (    -1          0          0      )
                  (     0          0         -1      )

 cart.    s(15) = (  0.0000000 -1.0000000  0.0000000 )
                  (  1.0000000  0.0000000  0.0000000 )
                  (  0.0000000  0.0000000 -1.0000000 )


      isym = 16     inv.  90 deg rotation - cart. axis [0,0,1]   

 cryst.   s(16) = (     0         -1          0      )
                  (     1          0          0      )
                  (     0          0         -1      )

 cart.    s(16) = (  0.0000000  1.0000000  0.0000000 )
                  ( -1.0000000  0.0000000  0.0000000 )
                  (  0.0000000  0.0000000 -1.0000000 )


      isym = 17     inv. 180 deg rotation - cart. axis [1,0,1]   

 cryst.   s(17) = (     0          0         -1      )
                  (     0          1          0      )
                  (    -1          0          0      )

 cart.    s(17) = (  0.0000000  0.0000000 -1.0000000 )
                  (  0.0000000  1.0000000  0.0000000 )
                  ( -1.0000000  0.0000000  0.0000000 )


      isym = 18     inv. 180 deg rotation - cart. axis [-1,0,1]  

 cryst.   s(18) = (     0          0          1      )
                  (     0          1          0      )
                  (     1          0          0      )

 cart.    s(18) = (  0.0000000  0.0000000  1.0000000 )
                  (  0.0000000  1.0000000  0.0000000 )
                  (  1.0000000  0.0000000  0.0000000 )


      isym = 19     inv.  90 deg rotation - cart. axis [0,1,0]   

 cryst.   s(19) = (     0          0          1      )
                  (     0         -1          0      )
                  (    -1          0          0      )

 cart.    s(19) = (  0.0000000  0.0000000 -1.0000000 )
                  (  0.0000000 -1.0000000  0.0000000 )
                  (  1.0000000  0.0000000  0.0000000 )


      isym = 20     inv.  90 deg rotation - cart. axis [0,-1,0]  

 cryst.   s(20) = (     0          0         -1      )
                  (     0         -1          0      )
                  (     1          0          0      )

 cart.    s(20) = (  0.0000000  0.0000000  1.0000000 )
                  (  0.0000000 -1.0000000  0.0000000 )
                  ( -1.0000000  0.0000000  0.0000000 )


      isym = 21     inv. 180 deg rotation - cart. axis [0,1,1]   

 cryst.   s(21) = (     1          0          0      )
                  (     0          0         -1      )
                  (     0         -1          0      )

 cart.    s(21) = (  1.0000000  0.0000000  0.0000000 )
                  (  0.0000000  0.0000000 -1.0000000 )
                  (  0.0000000 -1.0000000  0.0000000 )


      isym = 22     inv. 180 deg rotation - cart. axis [0,1,-1]  

 cryst.   s(22) = (     1          0          0      )
                  (     0          0          1      )
                  (     0          1          0      )

 cart.    s(22) = (  1.0000000  0.0000000  0.0000000 )
                  (  0.0000000  0.0000000  1.0000000 )
                  (  0.0000000  1.0000000  0.0000000 )


      isym = 23     inv.  90 deg rotation - cart. axis [-1,0,0]  

 cryst.   s(23) = (    -1          0          0      )
                  (     0          0          1      )
                  (     0         -1          0      )

 cart.    s(23) = ( -1.0000000  0.0000000  0.0000000 )
                  (  0.0000000  0.0000000 -1.0000000 )
                  (  0.0000000  1.0000000  0.0000000 )


      isym = 24     inv.  90 deg rotation - cart. axis [1,0,0]   

 cryst.   s(24) = (    -1          0          0      )
                  (     0          0         -1      )
                  (     0          1          0      )

 cart.    s(24) = ( -1.0000000  0.0000000  0.0000000 )
                  (  0.0000000  0.0000000  1.0000000 )
                  (  0.0000000 -1.0000000  0.0000000 )


     double point group T_d (-43m) 
     there are  8 classes and  3 irreducible representations
     the character table:

       E     -E    8C3   -8C3   3C2  6S4   -6S4  6s_d 
                               -3C2              -6s_d
G_6    2.00 -2.00  1.00 -1.00  0.00  1.41 -1.41  0.00
G_7    2.00 -2.00  1.00 -1.00  0.00 -1.41  1.41  0.00
G_8    4.00 -4.00 -1.00  1.00  0.00  0.00  0.00  0.00

     the symmetry operations in each class and the name of the first element:

     E             1
          identity                                               
     -E           -1
          identity E                                             
     8C3           5    7    8    6   12    9   10   11
          120 deg rotation - cart. axis [-1,-1,-1]               
     -8C3         -5   -7   -8   -6  -12   -9  -10  -11
          120 deg rotation - cart. axis [-1,-1,-1] E             
      3C2 -3C2     2   -2    3   -3    4   -4
          180 deg rotation - cart. axis [0,0,1]                  
     6S4          15   16   20   19   23   24
          inv.  90 deg rotation - cart. axis [0,0,-1]            
     -6S4        -15  -16  -20  -19  -23  -24
          inv.  90 deg rotation - cart. axis [0,0,-1] E          
     6s_d -6s_d   13  -13  -14   14   17  -17  -18   18   21  -21   22  -22
          inv. 180 deg rotation - cart. axis [1,1,0]             

   Cartesian axes

     site n.     atom                  positions (alat units)
         1           Sn  tau(   1) = (   0.0000000   0.0000000   0.0000000  )
         2           I   tau(   2) = (   0.2339030   0.7660970   0.7660970  )
         3           I   tau(   3) = (   0.7660970   0.2339030   0.7660970  )
         4           I   tau(   4) = (   0.7660970   0.7660970   0.2339030  )
         5           I   tau(   5) = (   0.2339030   0.2339030   0.2339030  )

   Crystallographic axes

     site n.     atom                  positions (cryst. coord.)
         1           Sn  tau(   1) = (  0.0000000  0.0000000  0.0000000  )
         2           I   tau(   2) = (  0.2339030  0.7660970  0.7660970  )
         3           I   tau(   3) = (  0.7660970  0.2339030  0.7660970  )
         4           I   tau(   4) = (  0.7660970  0.7660970  0.2339030  )
         5           I   tau(   5) = (  0.2339030  0.2339030  0.2339030  )

     number of k points=    10
                       cart. coord. in units 2pi/alat
        k(    1) = (   0.1000000   0.1000000   0.1000000), wk =   0.0640000
        k(    2) = (   0.1000000   0.1000000   0.3000000), wk =   0.1920000
        k(    3) = (   0.1000000   0.1000000  -0.5000000), wk =   0.0960000
        k(    4) = (   0.1000000   0.3000000   0.3000000), wk =   0.1920000
        k(    5) = (   0.1000000   0.3000000  -0.5000000), wk =   0.1920000
        k(    6) = (   0.1000000  -0.5000000  -0.5000000), wk =   0.0480000
        k(    7) = (   0.3000000   0.3000000   0.3000000), wk =   0.0640000
        k(    8) = (   0.3000000   0.3000000  -0.5000000), wk =   0.0960000
        k(    9) = (   0.3000000  -0.5000000  -0.5000000), wk =   0.0480000
        k(   10) = (  -0.5000000  -0.5000000  -0.5000000), wk =   0.0080000

                       cryst. coord.
        k(    1) = (   0.1000000   0.1000000   0.1000000), wk =   0.0640000
        k(    2) = (   0.1000000   0.1000000   0.3000000), wk =   0.1920000
        k(    3) = (   0.1000000   0.1000000  -0.5000000), wk =   0.0960000
        k(    4) = (   0.1000000   0.3000000   0.3000000), wk =   0.1920000
        k(    5) = (   0.1000000   0.3000000  -0.5000000), wk =   0.1920000
        k(    6) = (   0.1000000  -0.5000000  -0.5000000), wk =   0.0480000
        k(    7) = (   0.3000000   0.3000000   0.3000000), wk =   0.0640000
        k(    8) = (   0.3000000   0.3000000  -0.5000000), wk =   0.0960000
        k(    9) = (   0.3000000  -0.5000000  -0.5000000), wk =   0.0480000
        k(   10) = (  -0.5000000  -0.5000000  -0.5000000), wk =   0.0080000

     Dense  grid:   293027 G-vectors     FFT dimensions: (  90,  90,  90)

     Smooth grid:   159699 G-vectors     FFT dimensions: (  72,  72,  72)

     Dynamical RAM for                 wfc:       1.07 MB

     Dynamical RAM for     wfc (w. buffer):      11.72 MB

     Dynamical RAM for           str. fact:       0.37 MB

     Dynamical RAM for           local pot:       0.00 MB

     Dynamical RAM for          nlocal pot:       2.16 MB

     Dynamical RAM for                qrad:      17.31 MB

     Dynamical RAM for          rho,v,vnew:       5.20 MB

     Dynamical RAM for               rhoin:       1.73 MB

     Dynamical RAM for            rho*nmix:      11.92 MB

     Dynamical RAM for           G-vectors:       0.75 MB

     Dynamical RAM for          h,s,v(r/c):       0.14 MB

     Dynamical RAM for          <psi|beta>:       0.22 MB

     Dynamical RAM for                 psi:       4.26 MB

     Dynamical RAM for                hpsi:       4.26 MB

     Dynamical RAM for                spsi:       4.26 MB

     Dynamical RAM for      wfcinit/wfcrot:       1.96 MB

     Dynamical RAM for           addusdens:     114.40 MB

     Dynamical RAM for          addusforce:     116.24 MB

     Dynamical RAM for         addusstress:     117.01 MB

     Estimated static dynamical RAM per process >      53.70 MB

     Estimated max dynamical RAM per process >     170.71 MB

     Estimated total dynamical RAM >       4.00 GB

     Initial potential from superposition of free atoms

     starting charge   41.99871, renormalised to   42.00000
     Starting wfcs are   50 randomized atomic wfcs
     Checking if some PAW data can be deallocated... 
       PAW data deallocated on   19 nodes for type:  1
       PAW data deallocated on    5 nodes for type:  2

     total cpu time spent up to now is       12.6 secs

     Self-consistent Calculation

     iteration #  1     ecut=    70.00 Ry     beta= 0.35
     Davidson diagonalization with overlap
     ethr =  1.00E-02,  avg # of iterations =  1.1

     Threshold (ethr) on eigenvalues was too large:
     Diagonalizing with lowered threshold

     Davidson diagonalization with overlap
     ethr =  3.86E-04,  avg # of iterations =  2.0

     total cpu time spent up to now is       34.7 secs

     total energy              =   -1933.72951049 Ry
     Harris-Foulkes estimate   =   -1933.78588439 Ry
     estimated scf accuracy    <       0.12674209 Ry

     iteration #  2     ecut=    70.00 Ry     beta= 0.35
     Davidson diagonalization with overlap
     ethr =  3.02E-04,  avg # of iterations =  2.1

     total cpu time spent up to now is       53.1 secs

     total energy              =   -1933.74521032 Ry
     Harris-Foulkes estimate   =   -1933.75169981 Ry
     estimated scf accuracy    <       0.02242806 Ry

     iteration #  3     ecut=    70.00 Ry     beta= 0.35
     Davidson diagonalization with overlap
     ethr =  5.34E-05,  avg # of iterations =  2.0

     total cpu time spent up to now is       69.8 secs

     total energy              =   -1933.74527525 Ry
     Harris-Foulkes estimate   =   -1933.74684994 Ry
     estimated scf accuracy    <       0.00533548 Ry

     iteration #  4     ecut=    70.00 Ry     beta= 0.35
     Davidson diagonalization with overlap
     ethr =  1.27E-05,  avg # of iterations =  2.7

     total cpu time spent up to now is       87.2 secs

     total energy              =   -1933.74561688 Ry
     Harris-Foulkes estimate   =   -1933.74593600 Ry
     estimated scf accuracy    <       0.00073164 Ry

     iteration #  5     ecut=    70.00 Ry     beta= 0.35
     Davidson diagonalization with overlap
     ethr =  1.74E-06,  avg # of iterations =  3.1

     total cpu time spent up to now is      104.6 secs

     total energy              =   -1933.74575348 Ry
     Harris-Foulkes estimate   =   -1933.74595065 Ry
     estimated scf accuracy    <       0.00047010 Ry

     iteration #  6     ecut=    70.00 Ry     beta= 0.35
     Davidson diagonalization with overlap
     ethr =  1.12E-06,  avg # of iterations =  2.0

     total cpu time spent up to now is      121.2 secs

     total energy              =   -1933.74583051 Ry
     Harris-Foulkes estimate   =   -1933.74583155 Ry
     estimated scf accuracy    <       0.00000697 Ry

     iteration #  7     ecut=    70.00 Ry     beta= 0.35
     Davidson diagonalization with overlap
     ethr =  1.66E-08,  avg # of iterations =  4.0

     total cpu time spent up to now is      138.1 secs

     total energy              =   -1933.74583439 Ry
     Harris-Foulkes estimate   =   -1933.74583537 Ry
     estimated scf accuracy    <       0.00000232 Ry

     iteration #  8     ecut=    70.00 Ry     beta= 0.35
     Davidson diagonalization with overlap
     ethr =  5.53E-09,  avg # of iterations =  2.0

     total cpu time spent up to now is      160.2 secs

     total energy              =   -1933.74583431 Ry
     Harris-Foulkes estimate   =   -1933.74583492 Ry
     estimated scf accuracy    <       0.00000122 Ry

     iteration #  9     ecut=    70.00 Ry     beta= 0.35
     Davidson diagonalization with overlap
     ethr =  2.90E-09,  avg # of iterations =  3.0

     total cpu time spent up to now is      177.5 secs

     End of self-consistent calculation

          k = 0.1000 0.1000 0.1000 ( 19924 PWs)   bands (ev):

   -21.8002 -21.8002 -21.8002 -21.8002 -20.7876 -20.7876 -20.7500 -20.7500
   -20.7500 -20.7500 -11.9177 -11.9177 -11.2145 -11.2145 -11.2063 -11.2063
   -11.2038 -11.2037  -6.3594  -6.3594  -2.7044  -2.7044  -2.6937  -2.6872
    -2.5119  -2.5119  -1.4227  -1.4227  -1.3673  -1.3272  -1.0481  -1.0481
    -0.9285  -0.9285  -0.4176  -0.3972  -0.3372  -0.3372  -0.1288  -0.1288
    -0.0196   0.0030

     occupation numbers 
     1.0000   1.0000   1.0000   1.0000   1.0000   1.0000   1.0000   1.0000
     1.0000   1.0000   1.0000   1.0000   1.0000   1.0000   1.0000   1.0000
     1.0000   1.0000   1.0000   1.0000   1.0000   1.0000   1.0000   1.0000
     1.0000   1.0000   1.0000   1.0000   1.0000   1.0000   1.0000   1.0000
     1.0000   1.0000   1.0000   1.0000   1.0000   1.0000   1.0000   1.0000
     1.0000   1.0000

          k = 0.1000 0.1000 0.3000 ( 19932 PWs)   bands (ev):

   -21.8002 -21.8002 -21.8002 -21.8002 -20.7876 -20.7876 -20.7500 -20.7500
   -20.7500 -20.7500 -11.8888 -11.8888 -11.2493 -11.2477 -11.2104 -11.2086
   -11.2039 -11.2035  -6.3326  -6.3318  -2.7820  -2.7492  -2.6993  -2.6917
    -2.5656  -2.5156  -1.4478  -1.4276  -1.2571  -1.2159  -1.0737  -1.0097
    -0.9612  -0.9014  -0.5043  -0.4855  -0.3749  -0.3236  -0.2674  -0.2326
    -0.0714  -0.0433

     occupation numbers 
     1.0000   1.0000   1.0000   1.0000   1.0000   1.0000   1.0000   1.0000
     1.0000   1.0000   1.0000   1.0000   1.0000   1.0000   1.0000   1.0000
     1.0000   1.0000   1.0000   1.0000   1.0000   1.0000   1.0000   1.0000
     1.0000   1.0000   1.0000   1.0000   1.0000   1.0000   1.0000   1.0000
     1.0000   1.0000   1.0000   1.0000   1.0000   1.0000   1.0000   1.0000
     1.0000   1.0000

          k = 0.1000 0.1000-0.5000 ( 19996 PWs)   bands (ev):

   -21.8002 -21.8002 -21.8002 -21.8002 -20.7876 -20.7876 -20.7501 -20.7501
   -20.7501 -20.7501 -11.8691 -11.8691 -11.2750 -11.2734 -11.2100 -11.2082
   -11.2033 -11.2030  -6.3159  -6.3145  -2.8274  -2.7805  -2.7064  -2.6838
    -2.6000  -2.5199  -1.4541  -1.4336  -1.1482  -1.1375  -1.0570  -1.0298
    -0.9766  -0.9070  -0.5758  -0.5335  -0.4930  -0.3588  -0.2373  -0.1835
    -0.1585  -0.1131

     occupation numbers 
     1.0000   1.0000   1.0000   1.0000   1.0000   1.0000   1.0000   1.0000
     1.0000   1.0000   1.0000   1.0000   1.0000   1.0000   1.0000   1.0000
     1.0000   1.0000   1.0000   1.0000   1.0000   1.0000   1.0000   1.0000
     1.0000   1.0000   1.0000   1.0000   1.0000   1.0000   1.0000   1.0000
     1.0000   1.0000   1.0000   1.0000   1.0000   1.0000   1.0000   1.0000
     1.0000   1.0000

          k = 0.1000 0.3000 0.3000 ( 19971 PWs)   bands (ev):

   -21.8002 -21.8002 -21.8002 -21.8002 -20.7876 -20.7876 -20.7501 -20.7500
   -20.7500 -20.7500 -11.8640 -11.8640 -11.2486 -11.2454 -11.2345 -11.2336
   -11.2118 -11.2093  -6.3226  -6.3213  -2.8371  -2.7969  -2.7285  -2.7079
    -2.5801  -2.5227  -1.5427  -1.5287  -1.1492  -1.0812  -1.0255  -1.0139
    -0.8503  -0.8489  -0.5630  -0.5224  -0.4432  -0.4209  -0.2240  -0.2130
    -0.0769  -0.0247

     occupation numbers 
     1.0000   1.0000   1.0000   1.0000   1.0000   1.0000   1.0000   1.0000
     1.0000   1.0000   1.0000   1.0000   1.0000   1.0000   1.0000   1.0000
     1.0000   1.0000   1.0000   1.0000   1.0000   1.0000   1.0000   1.0000
     1.0000   1.0000   1.0000   1.0000   1.0000   1.0000   1.0000   1.0000
     1.0000   1.0000   1.0000   1.0000   1.0000   1.0000   1.0000   1.0000
     1.0000   1.0000

          k = 0.1000 0.3000-0.5000 ( 19932 PWs)   bands (ev):

   -21.8002 -21.8002 -21.8002 -21.8002 -20.7876 -20.7876 -20.7500 -20.7500
   -20.7500 -20.7500 -11.8474 -11.8473 -11.2642 -11.2613 -11.2347 -11.2330
   -11.2159 -11.2138  -6.3164  -6.3148  -2.8737  -2.8334  -2.7365  -2.7103
    -2.5922  -2.5275  -1.5758  -1.5747  -1.0847  -1.0614  -0.9942  -0.9828
    -0.7996  -0.7782  -0.5844  -0.5804  -0.5433  -0.4272  -0.1973  -0.1462
    -0.1211  -0.0472

     occupation numbers 
     1.0000   1.0000   1.0000   1.0000   1.0000   1.0000   1.0000   1.0000
     1.0000   1.0000   1.0000   1.0000   1.0000   1.0000   1.0000   1.0000
     1.0000   1.0000   1.0000   1.0000   1.0000   1.0000   1.0000   1.0000
     1.0000   1.0000   1.0000   1.0000   1.0000   1.0000   1.0000   1.0000
     1.0000   1.0000   1.0000   1.0000   1.0000   1.0000   1.0000   1.0000
     1.0000   1.0000

          k = 0.1000-0.5000-0.5000 ( 19940 PWs)   bands (ev):

   -21.8002 -21.8002 -21.8002 -21.8002 -20.7876 -20.7876 -20.7500 -20.7500
   -20.7500 -20.7500 -11.8329 -11.8329 -11.2546 -11.2546 -11.2487 -11.2487
   -11.2246 -11.2246  -6.3158  -6.3158  -2.8894  -2.8894  -2.7332  -2.7332
    -2.5599  -2.5599  -1.6269  -1.6269  -1.0603  -1.0603  -0.9628  -0.9628
    -0.6616  -0.6616  -0.5827  -0.5827  -0.5627  -0.5627  -0.1602  -0.1602
    -0.0393  -0.0393

     occupation numbers 
     1.0000   1.0000   1.0000   1.0000   1.0000   1.0000   1.0000   1.0000
     1.0000   1.0000   1.0000   1.0000   1.0000   1.0000   1.0000   1.0000
     1.0000   1.0000   1.0000   1.0000   1.0000   1.0000   1.0000   1.0000
     1.0000   1.0000   1.0000   1.0000   1.0000   1.0000   1.0000   1.0000
     1.0000   1.0000   1.0000   1.0000   1.0000   1.0000   1.0000   1.0000
     1.0000   1.0000

          k = 0.3000 0.3000 0.3000 ( 19979 PWs)   bands (ev):

   -21.8002 -21.8002 -21.8002 -21.8002 -20.7876 -20.7876 -20.7501 -20.7500
   -20.7500 -20.7500 -11.8435 -11.8435 -11.2487 -11.2487 -11.2349 -11.2349
   -11.2306 -11.2304  -6.3297  -6.3297  -2.8194  -2.8194  -2.7875  -2.7833
    -2.5762  -2.5762  -1.6364  -1.6364  -0.9891  -0.9374  -0.9374  -0.9261
    -0.8127  -0.8127  -0.5579  -0.5396  -0.4813  -0.4813  -0.1394  -0.1394
    -0.0408   0.0076

     occupation numbers 
     1.0000   1.0000   1.0000   1.0000   1.0000   1.0000   1.0000   1.0000
     1.0000   1.0000   1.0000   1.0000   1.0000   1.0000   1.0000   1.0000
     1.0000   1.0000   1.0000   1.0000   1.0000   1.0000   1.0000   1.0000
     1.0000   1.0000   1.0000   1.0000   1.0000   1.0000   1.0000   1.0000
     1.0000   1.0000   1.0000   1.0000   1.0000   1.0000   1.0000   1.0000
     1.0000   1.0000

          k = 0.3000 0.3000-0.5000 ( 19948 PWs)   bands (ev):

   -21.8002 -21.8002 -21.8002 -21.8002 -20.7876 -20.7876 -20.7500 -20.7500
   -20.7500 -20.7500 -11.8300 -11.8300 -11.2588 -11.2546 -11.2428 -11.2382
   -11.2319 -11.2312  -6.3348  -6.3340  -2.8575  -2.8382  -2.8035  -2.7953
    -2.6046  -2.5738  -1.6763  -1.6688  -0.9682  -0.8730  -0.8582  -0.8381
    -0.8114  -0.7762  -0.5576  -0.5532  -0.5166  -0.4809  -0.0800  -0.0792
    -0.0545   0.0019

     occupation numbers 
     1.0000   1.0000   1.0000   1.0000   1.0000   1.0000   1.0000   1.0000
     1.0000   1.0000   1.0000   1.0000   1.0000   1.0000   1.0000   1.0000
     1.0000   1.0000   1.0000   1.0000   1.0000   1.0000   1.0000   1.0000
     1.0000   1.0000   1.0000   1.0000   1.0000   1.0000   1.0000   1.0000
     1.0000   1.0000   1.0000   1.0000   1.0000   1.0000   1.0000   1.0000
     1.0000   1.0000

          k = 0.3000-0.5000-0.5000 ( 19984 PWs)   bands (ev):

   -21.8002 -21.8002 -21.8002 -21.8002 -20.7876 -20.7876 -20.7500 -20.7500
   -20.7500 -20.7500 -11.8187 -11.8187 -11.2540 -11.2540 -11.2474 -11.2474
   -11.2387 -11.2387  -6.3457  -6.3457  -2.8702  -2.8702  -2.8227  -2.8227
    -2.6032  -2.6032  -1.7033  -1.7033  -0.8759  -0.8759  -0.8247  -0.8247
    -0.7019  -0.7019  -0.5376  -0.5376  -0.5135  -0.5135  -0.0348  -0.0348
     0.0165   0.0165

     occupation numbers 
     1.0000   1.0000   1.0000   1.0000   1.0000   1.0000   1.0000   1.0000
     1.0000   1.0000   1.0000   1.0000   1.0000   1.0000   1.0000   1.0000
     1.0000   1.0000   1.0000   1.0000   1.0000   1.0000   1.0000   1.0000
     1.0000   1.0000   1.0000   1.0000   1.0000   1.0000   1.0000   1.0000
     1.0000   1.0000   1.0000   1.0000   1.0000   1.0000   1.0000   1.0000
     1.0000   1.0000

          k =-0.5000-0.5000-0.5000 ( 19952 PWs)   bands (ev):

   -21.8002 -21.8002 -21.8002 -21.8002 -20.7876 -20.7876 -20.7500 -20.7500
   -20.7500 -20.7500 -11.8095 -11.8095 -11.2549 -11.2549 -11.2466 -11.2466
   -11.2466 -11.2466  -6.3637  -6.3637  -2.8707  -2.8707  -2.8707  -2.8707
    -2.6242  -2.6242  -1.7197  -1.7197  -0.7653  -0.7653  -0.7653  -0.7653
    -0.7120  -0.7120  -0.5023  -0.5023  -0.5023  -0.5023   0.0509   0.0509
     0.0509   0.0509

     occupation numbers 
     1.0000   1.0000   1.0000   1.0000   1.0000   1.0000   1.0000   1.0000
     1.0000   1.0000   1.0000   1.0000   1.0000   1.0000   1.0000   1.0000
     1.0000   1.0000   1.0000   1.0000   1.0000   1.0000   1.0000   1.0000
     1.0000   1.0000   1.0000   1.0000   1.0000   1.0000   1.0000   1.0000
     1.0000   1.0000   1.0000   1.0000   1.0000   1.0000   1.0000   1.0000
     1.0000   1.0000

     highest occupied level (ev):     0.0509

!    total energy              =   -1933.74583458 Ry
     Harris-Foulkes estimate   =   -1933.74583469 Ry
     estimated scf accuracy    <       0.00000013 Ry

     total all-electron energy =    -69281.863099 Ry

     The total energy is the sum of the following terms:

     one-electron contribution =    -155.34129098 Ry
     hartree contribution      =      94.82806714 Ry
     xc contribution           =    -110.25324672 Ry
     ewald contribution        =    -119.43299744 Ry
     one-center paw contrib.   =   -1643.54636658 Ry
      -> PAW hartree energy AE =     109.93096866 Ry
      -> PAW hartree energy PS =    -109.18110680 Ry
      -> PAW xc energy AE      =    -324.42054338 Ry
      -> PAW xc energy PS      =      46.78671777 Ry
      -> total E_H with PAW    =      95.57792900 Ry
      -> total E_XC with PAW   =    -387.88707233 Ry

     convergence has been achieved in   9 iterations

     Forces acting on atoms (cartesian axes, Ry/au):

     atom    1 type  1   force =     0.00000000    0.00000000    0.00000000
     atom    2 type  2   force =    -0.00379398    0.00379398    0.00379398
     atom    3 type  2   force =     0.00379398   -0.00379398    0.00379398
     atom    4 type  2   force =     0.00379398    0.00379398   -0.00379398
     atom    5 type  2   force =    -0.00379398   -0.00379398   -0.00379398
     The non-local contrib.  to forces
     atom    1 type  1   force =     0.00000000    0.00000000    0.00000000
     atom    2 type  2   force =    -0.08594063    0.08594063    0.08594063
     atom    3 type  2   force =     0.08594063   -0.08594063    0.08594063
     atom    4 type  2   force =     0.08594063    0.08594063   -0.08594063
     atom    5 type  2   force =    -0.08594063   -0.08594063   -0.08594063
     The ionic contribution  to forces
     atom    1 type  1   force =     0.00000000    0.00000000   -0.00000000
     atom    2 type  2   force =     3.79412126   -3.79412126   -3.79412126
     atom    3 type  2   force =    -3.79412126    3.79412126   -3.79412126
     atom    4 type  2   force =    -3.79412126   -3.79412126    3.79412126
     atom    5 type  2   force =     3.79412126    3.79412126    3.79412126
     The local contribution  to forces
     atom    1 type  1   force =     0.00000000    0.00000000    0.00000000
     atom    2 type  2   force =    -3.71972218    3.71972218    3.71972218
     atom    3 type  2   force =     3.71972218   -3.71972218    3.71972218
     atom    4 type  2   force =     3.71972218    3.71972218   -3.71972218
     atom    5 type  2   force =    -3.71972218   -3.71972218   -3.71972218
     The core correction contribution to forces
     atom    1 type  1   force =     0.00000000    0.00000000    0.00000000
     atom    2 type  2   force =     0.00751388   -0.00751388   -0.00751388
     atom    3 type  2   force =    -0.00751388    0.00751388   -0.00751388
     atom    4 type  2   force =    -0.00751388   -0.00751388    0.00751388
     atom    5 type  2   force =     0.00751388    0.00751388    0.00751388
     The Hubbard contrib.    to forces
     atom    1 type  1   force =     0.00000000    0.00000000    0.00000000
     atom    2 type  2   force =     0.00000000    0.00000000    0.00000000
     atom    3 type  2   force =     0.00000000    0.00000000    0.00000000
     atom    4 type  2   force =     0.00000000    0.00000000    0.00000000
     atom    5 type  2   force =     0.00000000    0.00000000    0.00000000
     The SCF correction term to forces
     atom    1 type  1   force =     0.00000000    0.00000000    0.00000000
     atom    2 type  2   force =     0.00023369   -0.00023369   -0.00023369
     atom    3 type  2   force =    -0.00023369    0.00023369   -0.00023369
     atom    4 type  2   force =    -0.00023369   -0.00023369    0.00023369
     atom    5 type  2   force =     0.00023369    0.00023369    0.00023369

     Total force =     0.013143     Total SCF correction =     0.000810


     Computing stress (Cartesian axis) and pressure

     Message from routine stres:
     noncollinear stress + GGA not implemented

     Writing output data file CsIsalt.save/
 
     init_run     :      4.83s CPU      7.55s WALL (       1 calls)
     electrons    :    105.54s CPU    164.98s WALL (       1 calls)
     forces       :      2.08s CPU      3.03s WALL (       1 calls)

     Called by init_run:
     wfcinit      :      2.78s CPU      4.49s WALL (       1 calls)
     wfcinit:atom :      0.01s CPU      0.01s WALL (      10 calls)
     wfcinit:wfcr :      2.71s CPU      4.38s WALL (      10 calls)
     potinit      :      0.60s CPU      1.01s WALL (       1 calls)
     hinit0       :      0.60s CPU      0.92s WALL (       1 calls)

     Called by electrons:
     c_bands      :     74.61s CPU    115.89s WALL (      10 calls)
     sum_band     :     21.04s CPU     34.77s WALL (      10 calls)
     v_of_rho     :      0.69s CPU      1.22s WALL (      10 calls)
     v_h          :      0.05s CPU      0.11s WALL (      10 calls)
     v_xc         :      0.97s CPU      1.63s WALL (      11 calls)
     newd         :      4.89s CPU      6.85s WALL (      10 calls)
     PAW_pot      :      2.46s CPU      3.52s WALL (      10 calls)
     mix_rho      :      0.95s CPU      1.16s WALL (      10 calls)

     Called by c_bands:
     init_us_2    :      0.42s CPU      0.66s WALL (     220 calls)
     cegterg      :     69.34s CPU    109.73s WALL (     100 calls)

     Called by sum_band:
     sum_band:bec :      0.77s CPU      1.12s WALL (     100 calls)
     addusdens    :      3.91s CPU      4.79s WALL (      10 calls)

     Called by *egterg:
     h_psi        :     45.29s CPU     73.34s WALL (     350 calls)
     s_psi        :      1.08s CPU      1.34s WALL (     350 calls)
     g_psi        :      0.12s CPU      0.13s WALL (     240 calls)
     cdiaghg      :      5.94s CPU      9.98s WALL (     330 calls)
     cegterg:over :      7.59s CPU     10.54s WALL (     240 calls)
     cegterg:upda :      5.28s CPU      7.87s WALL (     240 calls)
     cegterg:last :      1.85s CPU      2.78s WALL (     100 calls)
     cdiaghg:chol :      0.34s CPU      0.60s WALL (     330 calls)
     cdiaghg:inve :      0.26s CPU      0.47s WALL (     330 calls)
     cdiaghg:para :      1.59s CPU      2.73s WALL (     660 calls)

     Called by h_psi:
     h_psi:pot    :     45.08s CPU     73.09s WALL (     350 calls)
     h_psi:calbec :      1.52s CPU      1.97s WALL (     350 calls)
     vloc_psi     :     42.37s CPU     69.63s WALL (     350 calls)
     add_vuspsi   :      1.19s CPU      1.49s WALL (     350 calls)

     General routines
     calbec       :      2.52s CPU      3.36s WALL (     490 calls)
     fft          :      2.44s CPU      4.13s WALL (     221 calls)
     ffts         :      1.12s CPU      2.10s WALL (      80 calls)
     fftw         :     53.44s CPU     91.08s WALL (   54252 calls)
     interpolate  :      0.89s CPU      1.76s WALL (      40 calls)
 
     Parallel routines
     fft_scatt_xy :      2.46s CPU      2.99s WALL (   54553 calls)
     fft_scatt_yz :     44.59s CPU     81.36s WALL (   54553 calls)

     PAW routines
     PAW_pot      :      2.46s CPU      3.52s WALL (      10 calls)
     PAW_symme    :      0.06s CPU      0.08s WALL (      20 calls)
 
     PWSCF        :   1m58.33s CPU   3m 3.19s WALL

 
   This run was terminated on:  20:19: 0  24Jan2021            

=------------------------------------------------------------------------------=
   JOB DONE.
=------------------------------------------------------------------------------=
