
     Program PWSCF v.6.7MaX starts on 31Jan2021 at 10:54:27 

     This program is part of the open-source Quantum ESPRESSO suite
     for quantum simulation of materials; please cite
         "P. Giannozzi et al., J. Phys.:Condens. Matter 21 395502 (2009);
         "P. Giannozzi et al., J. Phys.:Condens. Matter 29 465901 (2017);
          URL http://www.quantum-espresso.org", 
     in publications or presentations arising from this work. More details at
     http://www.quantum-espresso.org/quote

     Parallel version (MPI & OpenMP), running on      96 processor cores
     Number of MPI processes:                48
     Threads/MPI process:                     2

     MPI processes distributed on     2 nodes
     R & G space division:  proc/nbgrp/npool/nimage =      48
     Waiting for input...
     Reading input from standard input

     Current dimensions of program PWSCF are:
     Max number of different atomic species (ntypx) = 10
     Max number of k-points (npk) =  40000
     Max angular momentum in pseudopotentials (lmaxx) =  3
     file Sn.rel-pbesol-dn-rrkjus_psl.1.0.0.UPF: wavefunction(s)  5S 4D 4D renormalized
     file I.rel-pbesol-n-rrkjus_psl.1.0.0.UPF: wavefunction(s)  5S renormalized

     Subspace diagonalization in iterative solution of the eigenvalue problem:
     a serial algorithm will be used


     Parallelization info
     --------------------
     sticks:   dense  smooth     PW     G-vecs:    dense   smooth      PW
     Min         120      96     25                 6900     4938     657
     Max         121      97     26                 6905     4943     662
     Sum        5761    4637   1201               331237   237129   31559


     Title: 
     SnI2                                                                       


     bravais-lattice index     =            1
     lattice parameter (alat)  =      14.4199  a.u.
     unit-cell volume          =    2998.4083 (a.u.)^3
     number of atoms/cell      =            6
     number of atomic types    =            2
     number of electrons       =        56.00
     number of Kohn-Sham states=           56
     kinetic-energy cutoff     =      70.0000  Ry
     charge density cutoff     =     350.0000  Ry
     scf convergence threshold =      1.0E-06
     mixing beta               =       0.3500
     number of iterations used =            8  plain     mixing
     Exchange-correlation= PBESOL
                           (   1   4  10   8   0   0   0)
     Non magnetic calculation with spin-orbit


     celldm(1)=  14.419944  celldm(2)=   0.000000  celldm(3)=   0.000000
     celldm(4)=   0.000000  celldm(5)=   0.000000  celldm(6)=   0.000000

     crystal axes: (cart. coord. in units of alat)
               a(1) = (   1.000000   0.000000   0.000000 )  
               a(2) = (   0.000000   1.000000   0.000000 )  
               a(3) = (   0.000000   0.000000   1.000000 )  

     reciprocal axes: (cart. coord. in units 2 pi/alat)
               b(1) = (  1.000000  0.000000  0.000000 )  
               b(2) = (  0.000000  1.000000  0.000000 )  
               b(3) = (  0.000000  0.000000  1.000000 )  


     PseudoPot. # 1 for Sn read from file:
     /scratch/cmalosso/degironcoli/pseudo/pseudo-usp/Sn.rel-pbesol-dn-rrkjus_psl.1.0.0.UPF
     MD5 check sum: c1cf6ea56b96a3656bdf0d1db379e093
     Pseudo is Ultrasoft + core correction, Zval = 14.0
     Generated using &quot;atomic&quot; code by A. Dal Corso  v.6.3
     Using radial grid of 1243 points, 10 beta functions with: 
                l(1) =   0
                l(2) =   0
                l(3) =   1
                l(4) =   1
                l(5) =   1
                l(6) =   1
                l(7) =   2
                l(8) =   2
                l(9) =   2
               l(10) =   2
     Q(r) pseudized with 0 coefficients 


     PseudoPot. # 2 for I  read from file:
     /scratch/cmalosso/degironcoli/pseudo/pseudo-usp/I.rel-pbesol-n-rrkjus_psl.1.0.0.UPF
     MD5 check sum: 0f96c6bfb1b448f280658f96eb466b08
     Pseudo is Ultrasoft + core correction, Zval =  7.0
     Generated using &quot;atomic&quot; code by A. Dal Corso  v.6.3
     Using radial grid of 1247 points, 10 beta functions with: 
                l(1) =   0
                l(2) =   0
                l(3) =   1
                l(4) =   1
                l(5) =   1
                l(6) =   1
                l(7) =   2
                l(8) =   2
                l(9) =   2
               l(10) =   2
     Q(r) pseudized with 0 coefficients 


     atomic species   valence    mass     pseudopotential
        Sn            14.00   118.70000     Sn( 1.00)
        I              7.00   126.90000     I ( 1.00)

     16 Sym. Ops., with inversion, found ( 8 have fractional translation)


                                    s                        frac. trans.

      isym =  1     identity                                     

 cryst.   s( 1) = (     1          0          0      )
                  (     0          1          0      )
                  (     0          0          1      )

 cart.    s( 1) = (  1.0000000  0.0000000  0.0000000 )
                  (  0.0000000  1.0000000  0.0000000 )
                  (  0.0000000  0.0000000  1.0000000 )


      isym =  2     180 deg rotation - cart. axis [0,0,1]        

 cryst.   s( 2) = (    -1          0          0      )
                  (     0         -1          0      )
                  (     0          0          1      )

 cart.    s( 2) = ( -1.0000000  0.0000000  0.0000000 )
                  (  0.0000000 -1.0000000  0.0000000 )
                  (  0.0000000  0.0000000  1.0000000 )


      isym =  3     180 deg rotation - cart. axis [0,1,0]        

 cryst.   s( 3) = (    -1          0          0      )    f =(  0.5000000 )
                  (     0          1          0      )       ( -0.5000000 )
                  (     0          0         -1      )       (  0.5000000 )

 cart.    s( 3) = ( -1.0000000  0.0000000  0.0000000 )    f =(  0.5000000 )
                  (  0.0000000  1.0000000  0.0000000 )       ( -0.5000000 )
                  (  0.0000000  0.0000000 -1.0000000 )       (  0.5000000 )


      isym =  4     180 deg rotation - cart. axis [1,0,0]        

 cryst.   s( 4) = (     1          0          0      )    f =( -0.5000000 )
                  (     0         -1          0      )       (  0.5000000 )
                  (     0          0         -1      )       (  0.5000000 )

 cart.    s( 4) = (  1.0000000  0.0000000  0.0000000 )    f =( -0.5000000 )
                  (  0.0000000 -1.0000000  0.0000000 )       (  0.5000000 )
                  (  0.0000000  0.0000000 -1.0000000 )       (  0.5000000 )


      isym =  5     180 deg rotation - cart. axis [1,1,0]        

 cryst.   s( 5) = (     0          1          0      )
                  (     1          0          0      )
                  (     0          0         -1      )

 cart.    s( 5) = (  0.0000000  1.0000000  0.0000000 )
                  (  1.0000000  0.0000000  0.0000000 )
                  (  0.0000000  0.0000000 -1.0000000 )


      isym =  6     180 deg rotation - cart. axis [1,-1,0]       

 cryst.   s( 6) = (     0         -1          0      )
                  (    -1          0          0      )
                  (     0          0         -1      )

 cart.    s( 6) = (  0.0000000 -1.0000000  0.0000000 )
                  ( -1.0000000  0.0000000  0.0000000 )
                  (  0.0000000  0.0000000 -1.0000000 )


      isym =  7      90 deg rotation - cart. axis [0,0,-1]       

 cryst.   s( 7) = (     0         -1          0      )    f =( -0.5000000 )
                  (     1          0          0      )       (  0.5000000 )
                  (     0          0          1      )       ( -0.5000000 )

 cart.    s( 7) = (  0.0000000  1.0000000  0.0000000 )    f =( -0.5000000 )
                  ( -1.0000000  0.0000000  0.0000000 )       (  0.5000000 )
                  (  0.0000000  0.0000000  1.0000000 )       ( -0.5000000 )


      isym =  8      90 deg rotation - cart. axis [0,0,1]        

 cryst.   s( 8) = (     0          1          0      )    f =(  0.5000000 )
                  (    -1          0          0      )       ( -0.5000000 )
                  (     0          0          1      )       ( -0.5000000 )

 cart.    s( 8) = (  0.0000000 -1.0000000  0.0000000 )    f =(  0.5000000 )
                  (  1.0000000  0.0000000  0.0000000 )       ( -0.5000000 )
                  (  0.0000000  0.0000000  1.0000000 )       ( -0.5000000 )


      isym =  9     inversion                                    

 cryst.   s( 9) = (    -1          0          0      )
                  (     0         -1          0      )
                  (     0          0         -1      )

 cart.    s( 9) = ( -1.0000000  0.0000000  0.0000000 )
                  (  0.0000000 -1.0000000  0.0000000 )
                  (  0.0000000  0.0000000 -1.0000000 )


      isym = 10     inv. 180 deg rotation - cart. axis [0,0,1]   

 cryst.   s(10) = (     1          0          0      )
                  (     0          1          0      )
                  (     0          0         -1      )

 cart.    s(10) = (  1.0000000  0.0000000  0.0000000 )
                  (  0.0000000  1.0000000  0.0000000 )
                  (  0.0000000  0.0000000 -1.0000000 )


      isym = 11     inv. 180 deg rotation - cart. axis [0,1,0]   

 cryst.   s(11) = (     1          0          0      )    f =( -0.5000000 )
                  (     0         -1          0      )       (  0.5000000 )
                  (     0          0          1      )       ( -0.5000000 )

 cart.    s(11) = (  1.0000000  0.0000000  0.0000000 )    f =( -0.5000000 )
                  (  0.0000000 -1.0000000  0.0000000 )       (  0.5000000 )
                  (  0.0000000  0.0000000  1.0000000 )       ( -0.5000000 )


      isym = 12     inv. 180 deg rotation - cart. axis [1,0,0]   

 cryst.   s(12) = (    -1          0          0      )    f =(  0.5000000 )
                  (     0          1          0      )       ( -0.5000000 )
                  (     0          0          1      )       ( -0.5000000 )

 cart.    s(12) = ( -1.0000000  0.0000000  0.0000000 )    f =(  0.5000000 )
                  (  0.0000000  1.0000000  0.0000000 )       ( -0.5000000 )
                  (  0.0000000  0.0000000  1.0000000 )       ( -0.5000000 )


      isym = 13     inv. 180 deg rotation - cart. axis [1,1,0]   

 cryst.   s(13) = (     0         -1          0      )
                  (    -1          0          0      )
                  (     0          0          1      )

 cart.    s(13) = (  0.0000000 -1.0000000  0.0000000 )
                  ( -1.0000000  0.0000000  0.0000000 )
                  (  0.0000000  0.0000000  1.0000000 )


      isym = 14     inv. 180 deg rotation - cart. axis [1,-1,0]  

 cryst.   s(14) = (     0          1          0      )
                  (     1          0          0      )
                  (     0          0          1      )

 cart.    s(14) = (  0.0000000  1.0000000  0.0000000 )
                  (  1.0000000  0.0000000  0.0000000 )
                  (  0.0000000  0.0000000  1.0000000 )


      isym = 15     inv.  90 deg rotation - cart. axis [0,0,-1]  

 cryst.   s(15) = (     0          1          0      )    f =(  0.5000000 )
                  (    -1          0          0      )       ( -0.5000000 )
                  (     0          0         -1      )       (  0.5000000 )

 cart.    s(15) = (  0.0000000 -1.0000000  0.0000000 )    f =(  0.5000000 )
                  (  1.0000000  0.0000000  0.0000000 )       ( -0.5000000 )
                  (  0.0000000  0.0000000 -1.0000000 )       (  0.5000000 )


      isym = 16     inv.  90 deg rotation - cart. axis [0,0,1]   

 cryst.   s(16) = (     0         -1          0      )    f =( -0.5000000 )
                  (     1          0          0      )       (  0.5000000 )
                  (     0          0         -1      )       (  0.5000000 )

 cart.    s(16) = (  0.0000000  1.0000000  0.0000000 )    f =( -0.5000000 )
                  ( -1.0000000  0.0000000  0.0000000 )       (  0.5000000 )
                  (  0.0000000  0.0000000 -1.0000000 )       (  0.5000000 )


     double point group D_4h(4/mmm)
     there are 14 classes and  4 irreducible representations
     the character table:

       E     -E    2C4   -2C4   C2    2C2' 2C2'' i     -i    2S4   -2S4   s_h 
                               -C2   -2C2' -2C2'                         -s_h 
G_6+   2.00 -2.00  1.41 -1.41  0.00  0.00  0.00  2.00 -2.00  1.41 -1.41  0.00
G_7+   2.00 -2.00 -1.41  1.41  0.00  0.00  0.00  2.00 -2.00 -1.41  1.41  0.00
G_6-   2.00 -2.00  1.41 -1.41  0.00  0.00  0.00 -2.00  2.00 -1.41  1.41  0.00
G_7-   2.00 -2.00 -1.41  1.41  0.00  0.00  0.00 -2.00  2.00  1.41 -1.41  0.00

        2s_v  2s_d
       -2s_v -2s_d
G_6+   0.00  0.00
G_7+   0.00  0.00
G_6-   0.00  0.00
G_7-   0.00  0.00

     the symmetry operations in each class and the name of the first element:

     E             1
          identity                                               
     -E           -1
          identity E                                             
     2C4           7    8
           90 deg rotation - cart. axis [0,0,-1]                 
     -2C4         -7   -8
           90 deg rotation - cart. axis [0,0,-1] E               
      C2  -C2      2   -2
          180 deg rotation - cart. axis [0,0,1]                  
      2C2'-2C2'    3   -3    4   -4
          180 deg rotation - cart. axis [0,1,0]                  
     2C2''-2C2'    5   -5   -6    6
          180 deg rotation - cart. axis [1,1,0]                  
     i             9
          inversion                                              
     -i           -9
          inversion E                                            
     2S4          15   16
          inv.  90 deg rotation - cart. axis [0,0,-1]            
     -2S4        -15  -16
          inv.  90 deg rotation - cart. axis [0,0,-1] E          
      s_h -s_h    10  -10
          inv. 180 deg rotation - cart. axis [0,0,1]             
      2s_v-2s_v   11  -11   12  -12
          inv. 180 deg rotation - cart. axis [0,1,0]             
      2s_d-2s_d   13  -13  -14   14
          inv. 180 deg rotation - cart. axis [1,1,0]             

   Cartesian axes

     site n.     atom                  positions (alat units)
         1           Sn  tau(   1) = (   0.0000000   0.0000000   0.0000000  )
         2           Sn  tau(   2) = (   0.5000000   0.5000000   0.5000000  )
         3           I   tau(   3) = (   0.2985210   0.2985210   0.0000000  )
         4           I   tau(   4) = (   0.7014790   0.7014790   0.0000000  )
         5           I   tau(   5) = (   0.7985210   0.2014790   0.5000000  )
         6           I   tau(   6) = (   0.2014790   0.7985210   0.5000000  )

   Crystallographic axes

     site n.     atom                  positions (cryst. coord.)
         1           Sn  tau(   1) = (  0.0000000  0.0000000  0.0000000  )
         2           Sn  tau(   2) = (  0.5000000  0.5000000  0.5000000  )
         3           I   tau(   3) = (  0.2985210  0.2985210  0.0000000  )
         4           I   tau(   4) = (  0.7014790  0.7014790  0.0000000  )
         5           I   tau(   5) = (  0.7985210  0.2014790  0.5000000  )
         6           I   tau(   6) = (  0.2014790  0.7985210  0.5000000  )

     number of k points=     1
                       cart. coord. in units 2pi/alat
        k(    1) = (   0.2500000   0.2500000   0.2500000), wk =   1.0000000

                       cryst. coord.
        k(    1) = (   0.2500000   0.2500000   0.2500000), wk =   1.0000000

     Dense  grid:   331237 G-vectors     FFT dimensions: (  90,  90,  90)

     Smooth grid:   237129 G-vectors     FFT dimensions: (  80,  80,  80)

     Dynamical RAM for                 wfc:       1.05 MB

     Dynamical RAM for     wfc (w. buffer):       1.05 MB

     Dynamical RAM for           str. fact:       0.21 MB

     Dynamical RAM for           local pot:       0.00 MB

     Dynamical RAM for          nlocal pot:       1.92 MB

     Dynamical RAM for                qrad:       7.86 MB

     Dynamical RAM for          rho,v,vnew:       2.75 MB

     Dynamical RAM for               rhoin:       0.92 MB

     Dynamical RAM for            rho*nmix:       6.74 MB

     Dynamical RAM for           G-vectors:       0.43 MB

     Dynamical RAM for          h,s,v(r/c):       0.57 MB

     Dynamical RAM for          <psi|beta>:       0.35 MB

     Dynamical RAM for                 psi:       2.11 MB

     Dynamical RAM for                hpsi:       2.11 MB

     Dynamical RAM for                spsi:       2.11 MB

     Dynamical RAM for      wfcinit/wfcrot:       2.03 MB

     Dynamical RAM for           addusdens:      64.66 MB

     Dynamical RAM for          addusforce:      65.40 MB

     Dynamical RAM for         addusstress:      66.14 MB

     Estimated static dynamical RAM per process >      23.19 MB

     Estimated max dynamical RAM per process >      89.33 MB

     Estimated total dynamical RAM >       4.19 GB

     Initial potential from superposition of free atoms

     starting charge   55.99772, renormalised to   56.00000
     Starting wfcs are   68 randomized atomic wfcs

     total cpu time spent up to now is        2.3 secs

     Self-consistent Calculation

     iteration #  1     ecut=    70.00 Ry     beta= 0.35
     Davidson diagonalization with overlap
     ethr =  1.00E-02,  avg # of iterations =  1.0

     total cpu time spent up to now is        3.7 secs

     total energy              =    -458.29689743 Ry
     estimated scf accuracy    <       0.59168857 Ry

     iteration #  2     ecut=    70.00 Ry     beta= 0.35
     Davidson diagonalization with overlap
     ethr =  1.06E-03,  avg # of iterations =  3.0

     total cpu time spent up to now is        5.1 secs

     total energy              =    -458.37454537 Ry
     estimated scf accuracy    <       0.06217518 Ry

     iteration #  3     ecut=    70.00 Ry     beta= 0.35
     Davidson diagonalization with overlap
     ethr =  1.11E-04,  avg # of iterations =  5.0

     total cpu time spent up to now is        6.8 secs

     total energy              =    -458.38910312 Ry
     estimated scf accuracy    <       0.04396947 Ry

     iteration #  4     ecut=    70.00 Ry     beta= 0.35
     Davidson diagonalization with overlap
     ethr =  7.85E-05,  avg # of iterations =  5.0

     total cpu time spent up to now is        8.2 secs

     total energy              =    -458.39912419 Ry
     estimated scf accuracy    <       0.02893773 Ry

     iteration #  5     ecut=    70.00 Ry     beta= 0.35
     Davidson diagonalization with overlap
     ethr =  5.17E-05,  avg # of iterations =  5.0

     total cpu time spent up to now is        9.7 secs

     total energy              =    -458.40403590 Ry
     estimated scf accuracy    <       0.00077622 Ry

     iteration #  6     ecut=    70.00 Ry     beta= 0.35
     Davidson diagonalization with overlap
     ethr =  1.39E-06,  avg # of iterations = 10.0

     total cpu time spent up to now is       11.6 secs

     total energy              =    -458.40330814 Ry
     estimated scf accuracy    <       0.00689575 Ry

     iteration #  7     ecut=    70.00 Ry     beta= 0.35
     Davidson diagonalization with overlap
     ethr =  1.39E-06,  avg # of iterations =  7.0

     total cpu time spent up to now is       13.4 secs

     total energy              =    -458.40500672 Ry
     estimated scf accuracy    <       0.00034153 Ry

     iteration #  8     ecut=    70.00 Ry     beta= 0.35
     Davidson diagonalization with overlap
     ethr =  6.10E-07,  avg # of iterations =  1.0

     total cpu time spent up to now is       14.7 secs

     total energy              =    -458.40494751 Ry
     estimated scf accuracy    <       0.00016549 Ry

     iteration #  9     ecut=    70.00 Ry     beta= 0.35
     Davidson diagonalization with overlap
     ethr =  2.96E-07,  avg # of iterations =  5.0

     total cpu time spent up to now is       16.4 secs

     total energy              =    -458.40499210 Ry
     estimated scf accuracy    <       0.00000498 Ry

     iteration # 10     ecut=    70.00 Ry     beta= 0.35
     Davidson diagonalization with overlap
     ethr =  8.90E-09,  avg # of iterations =  4.0

     total cpu time spent up to now is       17.9 secs

     End of self-consistent calculation

          k = 0.2500 0.2500 0.2500 ( 29677 PWs)   bands (ev):

   -23.2669 -23.2669 -23.2668 -23.2668 -23.1438 -23.1438 -23.1438 -23.1438
   -22.2462 -22.2462 -22.2462 -22.2462 -22.1390 -22.1390 -22.1389 -22.1389
   -22.0888 -22.0888 -22.0887 -22.0887 -11.5756 -11.5756 -11.5275 -11.5275
   -11.4947 -11.4947 -11.4714 -11.4714  -7.0255  -7.0255  -6.9450  -6.9450
    -2.8742  -2.8742  -2.5295  -2.5295  -2.0900  -2.0900  -1.9211  -1.9211
    -1.8682  -1.8682  -1.5986  -1.5986  -1.2906  -1.2906  -1.2220  -1.2220
    -1.1148  -1.1148  -0.9270  -0.9270  -0.8718  -0.8718  -0.5803  -0.5803

     occupation numbers 
     1.0000   1.0000   1.0000   1.0000   1.0000   1.0000   1.0000   1.0000
     1.0000   1.0000   1.0000   1.0000   1.0000   1.0000   1.0000   1.0000
     1.0000   1.0000   1.0000   1.0000   1.0000   1.0000   1.0000   1.0000
     1.0000   1.0000   1.0000   1.0000   1.0000   1.0000   1.0000   1.0000
     1.0000   1.0000   1.0000   1.0000   1.0000   1.0000   1.0000   1.0000
     1.0000   1.0000   1.0000   1.0000   1.0000   1.0000   1.0000   1.0000
     1.0000   1.0000   1.0000   1.0000   1.0000   1.0000   1.0000   1.0000

     highest occupied level (ev):    -0.5803

!    total energy              =    -458.40499353 Ry
     estimated scf accuracy    <       0.00000005 Ry

     The total energy is the sum of the following terms:
     one-electron contribution =    -256.47652336 Ry
     hartree contribution      =     145.40893697 Ry
     xc contribution           =    -157.08564681 Ry
     ewald contribution        =    -190.25176033 Ry

     convergence has been achieved in  10 iterations

     Forces acting on atoms (cartesian axes, Ry/au):

     atom    1 type  1   force =     0.00000000    0.00000000    0.00000000
     atom    2 type  1   force =     0.00000000    0.00000000    0.00000000
     atom    3 type  2   force =    -0.01842245   -0.01842245    0.00000000
     atom    4 type  2   force =     0.01842245    0.01842245    0.00000000
     atom    5 type  2   force =    -0.01842245    0.01842245   -0.00000000
     atom    6 type  2   force =     0.01842245   -0.01842245   -0.00000000
     The non-local contrib.  to forces
     atom    1 type  1   force =     0.00000000    0.00000000    0.00000000
     atom    2 type  1   force =     0.00000000    0.00000000    0.00000000
     atom    3 type  2   force =    -0.04306605   -0.04306605   -0.00000000
     atom    4 type  2   force =     0.04306605    0.04306605   -0.00000000
     atom    5 type  2   force =    -0.04306605    0.04306605    0.00000000
     atom    6 type  2   force =     0.04306605   -0.04306605    0.00000000
     The ionic contribution  to forces
     atom    1 type  1   force =    -0.00000000   -0.00000000    0.00000000
     atom    2 type  1   force =    -0.00000000   -0.00000000    0.00000000
     atom    3 type  2   force =     1.38633658    1.38633658    0.00000000
     atom    4 type  2   force =    -1.38633658   -1.38633658   -0.00000000
     atom    5 type  2   force =     1.38633658   -1.38633658    0.00000000
     atom    6 type  2   force =    -1.38633658    1.38633658    0.00000000
     The local contribution  to forces
     atom    1 type  1   force =    -0.00000000   -0.00000000   -0.00000000
     atom    2 type  1   force =     0.00000000    0.00000000    0.00000000
     atom    3 type  2   force =    -1.36580467   -1.36580467   -0.00000000
     atom    4 type  2   force =     1.36580467    1.36580467    0.00000000
     atom    5 type  2   force =    -1.36580467    1.36580467    0.00000000
     atom    6 type  2   force =     1.36580467   -1.36580467    0.00000000
     The core correction contribution to forces
     atom    1 type  1   force =     0.00000000    0.00000000    0.00000000
     atom    2 type  1   force =     0.00000000    0.00000000    0.00000000
     atom    3 type  2   force =     0.00413995    0.00413995   -0.00000000
     atom    4 type  2   force =    -0.00413995   -0.00413995   -0.00000000
     atom    5 type  2   force =     0.00413995   -0.00413995   -0.00000000
     atom    6 type  2   force =    -0.00413995    0.00413995   -0.00000000
     The Hubbard contrib.    to forces
     atom    1 type  1   force =     0.00000000    0.00000000    0.00000000
     atom    2 type  1   force =     0.00000000    0.00000000    0.00000000
     atom    3 type  2   force =     0.00000000    0.00000000    0.00000000
     atom    4 type  2   force =     0.00000000    0.00000000    0.00000000
     atom    5 type  2   force =     0.00000000    0.00000000    0.00000000
     atom    6 type  2   force =     0.00000000    0.00000000    0.00000000
     The SCF correction term to forces
     atom    1 type  1   force =     0.00000000    0.00000000   -0.00000000
     atom    2 type  1   force =     0.00000000    0.00000000    0.00000000
     atom    3 type  2   force =    -0.00002825   -0.00002825   -0.00000000
     atom    4 type  2   force =     0.00002825    0.00002825   -0.00000000
     atom    5 type  2   force =    -0.00002825    0.00002825   -0.00000000
     atom    6 type  2   force =     0.00002825   -0.00002825   -0.00000000

     Total force =     0.052107     Total SCF correction =     0.000080


     Computing stress (Cartesian axis) and pressure

          total   stress  (Ry/bohr**3)                   (kbar)     P=      -27.54
  -0.00018772   0.00000000   0.00000000          -27.61        0.00        0.00
   0.00000000  -0.00018772   0.00000000            0.00      -27.61        0.00
   0.00000000   0.00000000  -0.00018622            0.00        0.00      -27.39

     kinetic stress (kbar)   4479.31      0.00      0.00
                                0.00   4479.31      0.00
                                0.00      0.00   4471.94

     local   stress (kbar)  -2715.43     -0.00     -0.00
                               -0.00  -2715.43      0.00
                               -0.00      0.00  -2197.32

     nonloc. stress (kbar)     69.20      0.00      0.00
                                0.00     69.20      0.00
                                0.00      0.00     53.18

     hartree stress (kbar)   2422.50      0.00     -0.00
                                0.00   2422.50     -0.00
                               -0.00     -0.00   2288.91

     exc-cor stress (kbar)   3792.35      0.00      0.00
                                0.00   3792.35      0.00
                                0.00      0.00   3791.35

     corecor stress (kbar)  -5084.54     -0.00      0.00
                               -0.00  -5084.54      0.00
                                0.00      0.00  -5083.48

     ewald   stress (kbar)  -2990.99      0.00     -0.00
                                0.00  -2990.99     -0.00
                               -0.00     -0.00  -3351.97

     hubbard stress (kbar)      0.00      0.00      0.00
                                0.00      0.00      0.00
                                0.00      0.00      0.00

     DFT-D   stress (kbar)      0.00      0.00      0.00
                                0.00      0.00      0.00
                                0.00      0.00      0.00

     XDM     stress (kbar)      0.00      0.00      0.00
                                0.00      0.00      0.00
                                0.00      0.00      0.00

     dft-nl  stress (kbar)      0.00      0.00      0.00
                                0.00      0.00      0.00
                                0.00      0.00      0.00

     TS-vdW  stress (kbar)      0.00      0.00      0.00
                                0.00      0.00      0.00
                                0.00      0.00      0.00



     Writing output data file ./SnI2.save/

     init_run     :      2.05s CPU      1.48s WALL (       1 calls)
     electrons    :     24.94s CPU     15.76s WALL (       1 calls)
     forces       :      1.16s CPU      0.67s WALL (       1 calls)
     stress       :      5.12s CPU      2.72s WALL (       1 calls)

     Called by init_run:
     wfcinit      :      0.50s CPU      0.32s WALL (       1 calls)
     wfcinit:atom :      0.00s CPU      0.00s WALL (       1 calls)
     wfcinit:wfcr :      0.48s CPU      0.31s WALL (       1 calls)
     potinit      :      0.22s CPU      0.12s WALL (       1 calls)
     hinit0       :      0.52s CPU      0.43s WALL (       1 calls)

     Called by electrons:
     c_bands      :      9.95s CPU      5.33s WALL (      10 calls)
     sum_band     :      7.22s CPU      5.13s WALL (      10 calls)
     v_of_rho     :      0.57s CPU      0.31s WALL (      11 calls)
     v_h          :      0.05s CPU      0.03s WALL (      11 calls)
     v_xc         :      0.60s CPU      0.33s WALL (      13 calls)
     newd         :      6.76s CPU      4.52s WALL (      11 calls)
     mix_rho      :      0.47s CPU      0.28s WALL (      10 calls)

     Called by c_bands:
     init_us_2    :      0.07s CPU      0.05s WALL (      21 calls)
     cegterg      :      9.58s CPU      5.07s WALL (      10 calls)

     Called by sum_band:
     sum_band:wei :      0.00s CPU      0.00s WALL (      10 calls)
     sum_band:loo :      1.53s CPU      0.79s WALL (      10 calls)
     sum_band:buf :      0.00s CPU      0.00s WALL (      10 calls)
     sum_band:ini :      0.04s CPU      0.02s WALL (      10 calls)
     sum_band:cal :      0.14s CPU      0.07s WALL (      10 calls)
     sum_band:bec :      0.30s CPU      0.15s WALL (      10 calls)
     addusdens    :      5.31s CPU      4.06s WALL (      10 calls)
     addusd:skk   :      0.01s CPU      0.00s WALL (      20 calls)
     addusd:dgemm :      1.89s CPU      2.33s WALL (      20 calls)
     addusd:qvan2 :      3.29s CPU      1.66s WALL (      20 calls)

     Called by *egterg:
     cdiaghg      :      0.41s CPU      0.22s WALL (      56 calls)
     cegterg:over :      0.44s CPU      0.23s WALL (      46 calls)
     cegterg:upda :      0.18s CPU      0.09s WALL (      46 calls)
     cegterg:last :      0.32s CPU      0.16s WALL (      26 calls)
     h_psi        :      7.80s CPU      4.16s WALL (      57 calls)
     s_psi        :      0.59s CPU      0.33s WALL (      57 calls)
     g_psi        :      0.02s CPU      0.01s WALL (      46 calls)

     Called by h_psi:
     h_psi:calbec :      0.46s CPU      0.24s WALL (      57 calls)
     vloc_psi     :      6.83s CPU      3.63s WALL (      57 calls)
     add_vuspsi   :      0.48s CPU      0.27s WALL (      57 calls)

     General routines
     calbec       :      0.71s CPU      0.39s WALL (      72 calls)
     fft          :      1.07s CPU      0.61s WALL (     259 calls)
     ffts         :      0.25s CPU      0.14s WALL (      84 calls)
     fftw         :      7.15s CPU      3.80s WALL (    8332 calls)
     interpolate  :      0.26s CPU      0.14s WALL (      44 calls)

     Parallel routines
     fft_scatt_xy :      0.40s CPU      0.21s WALL (    8675 calls)
     fft_scatt_yz :      6.19s CPU      3.37s WALL (    8675 calls)

     PWSCF        :     34.18s CPU     21.78s WALL


   This run was terminated on:  10:54:48  31Jan2021            

=------------------------------------------------------------------------------=
   JOB DONE.
=------------------------------------------------------------------------------=
