
     Program PWSCF v.6.6 starts on 24Jan2021 at 21:50:23 

     This program is part of the open-source Quantum ESPRESSO suite
     for quantum simulation of materials; please cite
         "P. Giannozzi et al., J. Phys.:Condens. Matter 21 395502 (2009);
         "P. Giannozzi et al., J. Phys.:Condens. Matter 29 465901 (2017);
          URL http://www.quantum-espresso.org", 
     in publications or presentations arising from this work. More details at
     http://www.quantum-espresso.org/quote

     Parallel version (MPI), running on    64 processors

     MPI processes distributed on     2 nodes
     R & G space division:  proc/nbgrp/npool/nimage =      64
     Fft bands division:     nmany     =       1
     Waiting for input...
     Reading input from standard input

     Current dimensions of program PWSCF are:
     Max number of different atomic species (ntypx) = 10
     Max number of k-points (npk) =  40000
     Max angular momentum in pseudopotentials (lmaxx) =  3
     file Cs.pbesol-spn-rrkjus_psl.1.0.0.UPF: wavefunction(s)  5S 6S renormalized
     file Sn.pbesol-dn-kjpaw_psl.1.0.0.UPF: wavefunction(s)  5S 5P 4D renormalized
     file I.pbesol-n-kjpaw_psl.1.0.0.UPF: wavefunction(s)  5S renormalized

     Subspace diagonalization in iterative solution of the eigenvalue problem:
     a serial algorithm will be used

 
     Parallelization info
     --------------------
     sticks:   dense  smooth     PW     G-vecs:    dense   smooth      PW
     Min          97      64     17                14461     7868    1121
     Max          98      65     18                14477     7883    1136
     Sum        6211    4145   1133               925941   504115   72215
 

     Title: 
     CsSnI3                                                                     


     bravais-lattice index     =            8
     lattice parameter (alat)  =       9.1317  a.u.
     unit-cell volume          =    6370.5385 (a.u.)^3
     number of atoms/cell      =           20
     number of atomic types    =            3
     number of electrons       =       176.00
     number of Kohn-Sham states=           88
     kinetic-energy cutoff     =      70.0000  Ry
     charge density cutoff     =     420.0000  Ry
     convergence threshold     =      1.0E-06
     mixing beta               =       0.5000
     number of iterations used =            8  plain     mixing
     Exchange-correlation= SLA PW PSX PSC
                           (   1   4  10   8   0   0   0)

     celldm(1)=   9.131705  celldm(2)=   2.227728  celldm(3)=   3.755420
     celldm(4)=   0.000000  celldm(5)=   0.000000  celldm(6)=   0.000000

     crystal axes: (cart. coord. in units of alat)
               a(1) = (   1.000000   0.000000   0.000000 )  
               a(2) = (   0.000000   2.227728   0.000000 )  
               a(3) = (   0.000000   0.000000   3.755420 )  

     reciprocal axes: (cart. coord. in units 2 pi/alat)
               b(1) = (  1.000000  0.000000  0.000000 )  
               b(2) = (  0.000000  0.448888  0.000000 )  
               b(3) = (  0.000000  0.000000  0.266282 )  


     PseudoPot. # 1 for Cs read from file:
     /scratch/gtenti/degironcoli/pseudo/Cs.pbesol-spn-rrkjus_psl.1.0.0.UPF
     MD5 check sum: a505fbb08e6a224ea4404a33e275d1b5
     Pseudo is Ultrasoft + core correction, Zval =  9.0
     Generated using "atomic" code by A. Dal Corso v.6.4.1
     Using radial grid of 1251 points,  9 beta functions with: 
                l(1) =   0
                l(2) =   0
                l(3) =   0
                l(4) =   1
                l(5) =   1
                l(6) =   2
                l(7) =   2
                l(8) =   3
                l(9) =   3
     Q(r) pseudized with 0 coefficients 


     PseudoPot. # 2 for Sn read from file:
     /scratch/gtenti/degironcoli/pseudo/Sn.pbesol-dn-kjpaw_psl.1.0.0.UPF
     MD5 check sum: 3b64f90c238cf26ccb627d174952382c
     Pseudo is Projector augmented-wave + core cor, Zval = 14.0
     Generated using "atomic" code by A. Dal Corso v.6.3
     Shape of augmentation charge: PSQ
     Using radial grid of 1243 points,  6 beta functions with: 
                l(1) =   0
                l(2) =   0
                l(3) =   1
                l(4) =   1
                l(5) =   2
                l(6) =   2
     Q(r) pseudized with 0 coefficients 


     PseudoPot. # 3 for I  read from file:
     /scratch/gtenti/degironcoli/pseudo/I.pbesol-n-kjpaw_psl.1.0.0.UPF
     MD5 check sum: 6038403ff9b03366b27f71806436e734
     Pseudo is Projector augmented-wave + core cor, Zval =  7.0
     Generated using "atomic" code by A. Dal Corso v.6.3
     Shape of augmentation charge: PSQ
     Using radial grid of 1247 points,  6 beta functions with: 
                l(1) =   0
                l(2) =   0
                l(3) =   1
                l(4) =   1
                l(5) =   2
                l(6) =   2
     Q(r) pseudized with 0 coefficients 


     atomic species   valence    mass     pseudopotential
        Cs             9.00   132.90000     Cs( 1.00)
        Sn            14.00   118.70000     Sn( 1.00)
        I              7.00   126.90000     I ( 1.00)

      8 Sym. Ops., with inversion, found ( 6 have fractional translation)


                                    s                        frac. trans.

      isym =  1     identity                                     

 cryst.   s( 1) = (     1          0          0      )
                  (     0          1          0      )
                  (     0          0          1      )

 cart.    s( 1) = (  1.0000000  0.0000000  0.0000000 )
                  (  0.0000000  1.0000000  0.0000000 )
                  (  0.0000000  0.0000000  1.0000000 )


      isym =  2     180 deg rotation - cart. axis [0,0,1]        

 cryst.   s( 2) = (    -1          0          0      )    f =(  0.0000000 )
                  (     0         -1          0      )       (  0.5000000 )
                  (     0          0          1      )       (  0.5000000 )

 cart.    s( 2) = ( -1.0000000  0.0000000  0.0000000 )    f =(  0.0000000 )
                  (  0.0000000 -1.0000000  0.0000000 )       (  1.1138638 )
                  (  0.0000000  0.0000000  1.0000000 )       (  1.8777098 )


      isym =  3     180 deg rotation - cart. axis [0,1,0]        

 cryst.   s( 3) = (    -1          0          0      )    f =(  0.5000000 )
                  (     0          1          0      )       ( -0.5000000 )
                  (     0          0         -1      )       ( -0.5000000 )

 cart.    s( 3) = ( -1.0000000  0.0000000  0.0000000 )    f =(  0.5000000 )
                  (  0.0000000  1.0000000  0.0000000 )       ( -1.1138638 )
                  (  0.0000000  0.0000000 -1.0000000 )       ( -1.8777098 )


      isym =  4     180 deg rotation - cart. axis [1,0,0]        

 cryst.   s( 4) = (     1          0          0      )    f =( -0.5000000 )
                  (     0         -1          0      )       (  0.0000000 )
                  (     0          0         -1      )       (  0.0000000 )

 cart.    s( 4) = (  1.0000000  0.0000000  0.0000000 )    f =( -0.5000000 )
                  (  0.0000000 -1.0000000  0.0000000 )       (  0.0000000 )
                  (  0.0000000  0.0000000 -1.0000000 )       (  0.0000000 )


      isym =  5     inversion                                    

 cryst.   s( 5) = (    -1          0          0      )
                  (     0         -1          0      )
                  (     0          0         -1      )

 cart.    s( 5) = ( -1.0000000  0.0000000  0.0000000 )
                  (  0.0000000 -1.0000000  0.0000000 )
                  (  0.0000000  0.0000000 -1.0000000 )


      isym =  6     inv. 180 deg rotation - cart. axis [0,0,1]   

 cryst.   s( 6) = (     1          0          0      )    f =(  0.0000000 )
                  (     0          1          0      )       ( -0.5000000 )
                  (     0          0         -1      )       ( -0.5000000 )

 cart.    s( 6) = (  1.0000000  0.0000000  0.0000000 )    f =(  0.0000000 )
                  (  0.0000000  1.0000000  0.0000000 )       ( -1.1138638 )
                  (  0.0000000  0.0000000 -1.0000000 )       ( -1.8777098 )


      isym =  7     inv. 180 deg rotation - cart. axis [0,1,0]   

 cryst.   s( 7) = (     1          0          0      )    f =( -0.5000000 )
                  (     0         -1          0      )       (  0.5000000 )
                  (     0          0          1      )       (  0.5000000 )

 cart.    s( 7) = (  1.0000000  0.0000000  0.0000000 )    f =( -0.5000000 )
                  (  0.0000000 -1.0000000  0.0000000 )       (  1.1138638 )
                  (  0.0000000  0.0000000  1.0000000 )       (  1.8777098 )


      isym =  8     inv. 180 deg rotation - cart. axis [1,0,0]   

 cryst.   s( 8) = (    -1          0          0      )    f =(  0.5000000 )
                  (     0          1          0      )       (  0.0000000 )
                  (     0          0          1      )       (  0.0000000 )

 cart.    s( 8) = ( -1.0000000  0.0000000  0.0000000 )    f =(  0.5000000 )
                  (  0.0000000  1.0000000  0.0000000 )       (  0.0000000 )
                  (  0.0000000  0.0000000  1.0000000 )       (  0.0000000 )


     point group D_2h (mmm) 
     there are  8 classes
     the character table:

       E     C2    C2'   C2''  i     s_v   s_v'  s_v''
A_g    1.00  1.00  1.00  1.00  1.00  1.00  1.00  1.00
B_1g   1.00  1.00 -1.00 -1.00  1.00  1.00 -1.00 -1.00
B_2g   1.00 -1.00  1.00 -1.00  1.00 -1.00  1.00 -1.00
B_3g   1.00 -1.00 -1.00  1.00  1.00 -1.00 -1.00  1.00
A_u    1.00  1.00  1.00  1.00 -1.00 -1.00 -1.00 -1.00
B_1u   1.00  1.00 -1.00 -1.00 -1.00 -1.00  1.00  1.00
B_2u   1.00 -1.00  1.00 -1.00 -1.00  1.00 -1.00  1.00
B_3u   1.00 -1.00 -1.00  1.00 -1.00  1.00  1.00 -1.00

     the symmetry operations in each class and the name of the first element:

     E        1
          identity                                               
     C2       2
          180 deg rotation - cart. axis [0,0,1]                  
     C2'      4
          180 deg rotation - cart. axis [1,0,0]                  
     C2''     3
          180 deg rotation - cart. axis [0,1,0]                  
     i        5
          inversion                                              
     s_v      6
          inv. 180 deg rotation - cart. axis [0,0,1]             
     s_v'     8
          inv. 180 deg rotation - cart. axis [1,0,0]             
     s_v''    7
          inv. 180 deg rotation - cart. axis [0,1,0]             

   Cartesian axes

     site n.     atom                  positions (alat units)
         1           Cs  tau(   1) = (   0.2500000   0.1859640   2.5168147  )
         2           Cs  tau(   2) = (   0.7500000   2.0417636   1.2386050  )
         3           Cs  tau(   3) = (   0.2500000   1.2998278   3.1163149  )
         4           Cs  tau(   4) = (   0.7500000   0.9278998   0.6391048  )
         5           Sn  tau(   5) = (   0.2500000   0.7615710   1.6485466  )
         6           Sn  tau(   6) = (   0.7500000   1.4661567   2.1068731  )
         7           Sn  tau(   7) = (   0.2500000   1.8754348   0.2291632  )
         8           Sn  tau(   8) = (   0.7500000   0.3522928   3.5262565  )
         9           I   tau(   9) = (   0.7500000   0.0581437   0.4202578  )
        10           I   tau(  10) = (   0.2500000   2.1695839   3.3351619  )
        11           I   tau(  11) = (   0.7500000   1.1720075   1.4574521  )
        12           I   tau(  12) = (   0.2500000   1.0557201   2.2979676  )
        13           I   tau(  13) = (   0.7500000   0.6531118   2.9738192  )
        14           I   tau(  14) = (   0.2500000   1.5746158   0.7816005  )
        15           I   tau(  15) = (   0.7500000   1.7669756   2.6593103  )
        16           I   tau(  16) = (   0.2500000   0.4607520   1.0961094  )
        17           I   tau(  17) = (   0.7500000   0.3753632   1.8734812  )
        18           I   tau(  18) = (   0.2500000   1.8523644   1.8819384  )
        19           I   tau(  19) = (   0.7500000   1.4892270   0.0042286  )
        20           I   tau(  20) = (   0.2500000   0.7385006   3.7511911  )

   Crystallographic axes

     site n.     atom                  positions (cryst. coord.)
         1           Cs  tau(   1) = (  0.2500000  0.0834770  0.6701820  )
         2           Cs  tau(   2) = (  0.7500000  0.9165230  0.3298180  )
         3           Cs  tau(   3) = (  0.2500000  0.5834770  0.8298180  )
         4           Cs  tau(   4) = (  0.7500000  0.4165230  0.1701820  )
         5           Sn  tau(   5) = (  0.2500000  0.3418600  0.4389780  )
         6           Sn  tau(   6) = (  0.7500000  0.6581400  0.5610220  )
         7           Sn  tau(   7) = (  0.2500000  0.8418600  0.0610220  )
         8           Sn  tau(   8) = (  0.7500000  0.1581400  0.9389780  )
         9           I   tau(   9) = (  0.7500000  0.0261000  0.1119070  )
        10           I   tau(  10) = (  0.2500000  0.9739000  0.8880930  )
        11           I   tau(  11) = (  0.7500000  0.5261000  0.3880930  )
        12           I   tau(  12) = (  0.2500000  0.4739000  0.6119070  )
        13           I   tau(  13) = (  0.7500000  0.2931740  0.7918740  )
        14           I   tau(  14) = (  0.2500000  0.7068260  0.2081260  )
        15           I   tau(  15) = (  0.7500000  0.7931740  0.7081260  )
        16           I   tau(  16) = (  0.2500000  0.2068260  0.2918740  )
        17           I   tau(  17) = (  0.7500000  0.1684960  0.4988740  )
        18           I   tau(  18) = (  0.2500000  0.8315040  0.5011260  )
        19           I   tau(  19) = (  0.7500000  0.6684960  0.0011260  )
        20           I   tau(  20) = (  0.2500000  0.3315040  0.9988740  )

     number of k points=     8
                       cart. coord. in units 2pi/alat
        k(    1) = (   0.0000000   0.0000000   0.0000000), wk =   0.2500000
        k(    2) = (   0.0000000   0.0000000  -0.1331409), wk =   0.2500000
        k(    3) = (   0.0000000  -0.2244440   0.0000000), wk =   0.2500000
        k(    4) = (   0.0000000  -0.2244440  -0.1331409), wk =   0.2500000
        k(    5) = (  -0.5000000   0.0000000   0.0000000), wk =   0.2500000
        k(    6) = (  -0.5000000   0.0000000  -0.1331409), wk =   0.2500000
        k(    7) = (  -0.5000000  -0.2244440   0.0000000), wk =   0.2500000
        k(    8) = (  -0.5000000  -0.2244440  -0.1331409), wk =   0.2500000

                       cryst. coord.
        k(    1) = (   0.0000000   0.0000000   0.0000000), wk =   0.2500000
        k(    2) = (   0.0000000   0.0000000  -0.5000000), wk =   0.2500000
        k(    3) = (   0.0000000  -0.5000000   0.0000000), wk =   0.2500000
        k(    4) = (   0.0000000  -0.5000000  -0.5000000), wk =   0.2500000
        k(    5) = (  -0.5000000   0.0000000   0.0000000), wk =   0.2500000
        k(    6) = (  -0.5000000   0.0000000  -0.5000000), wk =   0.2500000
        k(    7) = (  -0.5000000  -0.5000000   0.0000000), wk =   0.2500000
        k(    8) = (  -0.5000000  -0.5000000  -0.5000000), wk =   0.2500000

     Dense  grid:   925941 G-vectors     FFT dimensions: (  60, 144, 240)

     Smooth grid:   504115 G-vectors     FFT dimensions: (  50, 120, 192)

     Dynamical RAM for                 wfc:       1.32 MB

     Dynamical RAM for     wfc (w. buffer):      11.89 MB

     Dynamical RAM for           str. fact:       0.66 MB

     Dynamical RAM for           local pot:       0.00 MB

     Dynamical RAM for          nlocal pot:       6.31 MB

     Dynamical RAM for                qrad:      14.80 MB

     Dynamical RAM for          rho,v,vnew:       1.45 MB

     Dynamical RAM for               rhoin:       0.48 MB

     Dynamical RAM for            rho*nmix:       3.53 MB

     Dynamical RAM for           G-vectors:       0.89 MB

     Dynamical RAM for          h,s,v(r/c):       1.42 MB

     Dynamical RAM for          <psi|beta>:       0.56 MB

     Dynamical RAM for                 psi:       2.64 MB

     Dynamical RAM for                hpsi:       2.64 MB

     Dynamical RAM for                spsi:       2.64 MB

     Dynamical RAM for      wfcinit/wfcrot:       3.37 MB

     Dynamical RAM for           addusdens:     132.49 MB

     Dynamical RAM for          addusforce:     137.61 MB

     Dynamical RAM for         addusstress:     135.80 MB

     Estimated static dynamical RAM per process >      42.22 MB

     Estimated max dynamical RAM per process >     179.83 MB

     Estimated total dynamical RAM >      11.24 GB

     Initial potential from superposition of free atoms

     starting charge  175.84071, renormalised to  176.00000
     Starting wfcs are  104 randomized atomic wfcs
     Checking if some PAW data can be deallocated... 
       PAW data deallocated on   52 nodes for type:  2
       PAW data deallocated on   28 nodes for type:  3

     total cpu time spent up to now is       15.1 secs

     Self-consistent Calculation

     iteration #  1     ecut=    70.00 Ry     beta= 0.50
     Davidson diagonalization with overlap
     ethr =  1.00E-02,  avg # of iterations =  1.1

     Threshold (ethr) on eigenvalues was too large:
     Diagonalizing with lowered threshold

     Davidson diagonalization with overlap
     ethr =  2.90E-04,  avg # of iterations =  4.2

     total cpu time spent up to now is       34.6 secs

     total energy              =   -6438.58989797 Ry
     estimated scf accuracy    <       0.41433678 Ry

     iteration #  2     ecut=    70.00 Ry     beta= 0.50
     Davidson diagonalization with overlap
     ethr =  2.35E-04,  avg # of iterations =  3.9

     total cpu time spent up to now is       46.3 secs

     total energy              =   -6438.73182727 Ry
     estimated scf accuracy    <       0.12057916 Ry

     iteration #  3     ecut=    70.00 Ry     beta= 0.50
     Davidson diagonalization with overlap
     ethr =  6.85E-05,  avg # of iterations =  2.1

     total cpu time spent up to now is       56.3 secs

     total energy              =   -6438.74975721 Ry
     estimated scf accuracy    <       0.01140001 Ry

     iteration #  4     ecut=    70.00 Ry     beta= 0.50
     Davidson diagonalization with overlap
     ethr =  6.48E-06,  avg # of iterations =  7.4

     total cpu time spent up to now is       70.7 secs

     total energy              =   -6438.75689223 Ry
     estimated scf accuracy    <       0.01047566 Ry

     iteration #  5     ecut=    70.00 Ry     beta= 0.50
     Davidson diagonalization with overlap
     ethr =  5.95E-06,  avg # of iterations =  5.4

     total cpu time spent up to now is       82.0 secs

     total energy              =   -6438.75968591 Ry
     estimated scf accuracy    <       0.00055197 Ry

     iteration #  6     ecut=    70.00 Ry     beta= 0.50
     Davidson diagonalization with overlap
     ethr =  3.14E-07,  avg # of iterations =  6.1

     total cpu time spent up to now is       95.0 secs

     total energy              =   -6438.75973102 Ry
     estimated scf accuracy    <       0.00061708 Ry

     iteration #  7     ecut=    70.00 Ry     beta= 0.50
     Davidson diagonalization with overlap
     ethr =  3.14E-07,  avg # of iterations =  3.9

     total cpu time spent up to now is      105.4 secs

     total energy              =   -6438.75986164 Ry
     estimated scf accuracy    <       0.00000733 Ry

     iteration #  8     ecut=    70.00 Ry     beta= 0.50
     Davidson diagonalization with overlap
     ethr =  4.17E-09,  avg # of iterations = 11.9

     total cpu time spent up to now is      126.2 secs

     total energy              =   -6438.75988562 Ry
     estimated scf accuracy    <       0.00006284 Ry

     iteration #  9     ecut=    70.00 Ry     beta= 0.50
     Davidson diagonalization with overlap
     ethr =  4.17E-09,  avg # of iterations =  5.0

     total cpu time spent up to now is      137.3 secs

     total energy              =   -6438.75987948 Ry
     estimated scf accuracy    <       0.00002067 Ry

     iteration # 10     ecut=    70.00 Ry     beta= 0.50
     Davidson diagonalization with overlap
     ethr =  4.17E-09,  avg # of iterations =  6.2

     total cpu time spent up to now is      150.4 secs

     End of self-consistent calculation

          k = 0.0000 0.0000 0.0000 ( 62981 PWs)   bands (ev):

   -17.9096 -17.9095 -17.9093 -17.9093 -17.9023 -17.9023 -17.9020 -17.9020
   -17.8985 -17.8984 -17.8979 -17.8978 -17.8879 -17.8876 -17.8867 -17.8862
   -17.8850 -17.8849 -17.8846 -17.8842 -17.8788 -17.8788 -17.8774 -17.8774
    -8.9559  -8.9314  -8.7484  -8.6861  -8.5987  -8.5887  -8.5686  -8.5581
    -8.4295  -8.4063  -8.3883  -8.3458  -4.6940  -4.6932  -4.6917  -4.6838
    -4.6743  -4.6483  -4.6257  -4.6239  -4.6205  -4.6172  -4.6172  -4.6156
    -3.0449  -3.0202  -2.9841  -2.9031  -0.0251   0.1773   0.6127   0.7584
     0.7728   0.8518   0.9775   0.9869   1.0810   1.1534   1.1923   1.1975
     1.2070   1.4266   1.5069   1.6053   1.6544   1.6731   1.6947   1.7008
     1.7055   1.7201   1.8605   1.9451   1.9542   2.0606   2.0921   2.1028
     2.1164   2.1233   2.1698   2.2043   2.2710   2.3441   2.4936   2.7959

     occupation numbers 
     1.0000   1.0000   1.0000   1.0000   1.0000   1.0000   1.0000   1.0000
     1.0000   1.0000   1.0000   1.0000   1.0000   1.0000   1.0000   1.0000
     1.0000   1.0000   1.0000   1.0000   1.0000   1.0000   1.0000   1.0000
     1.0000   1.0000   1.0000   1.0000   1.0000   1.0000   1.0000   1.0000
     1.0000   1.0000   1.0000   1.0000   1.0000   1.0000   1.0000   1.0000
     1.0000   1.0000   1.0000   1.0000   1.0000   1.0000   1.0000   1.0000
     1.0000   1.0000   1.0000   1.0000   1.0000   1.0000   1.0000   1.0000
     1.0000   1.0000   1.0000   1.0000   1.0000   1.0000   1.0000   1.0000
     1.0000   1.0000   1.0000   1.0000   1.0000   1.0000   1.0000   1.0000
     1.0000   1.0000   1.0000   1.0000   1.0000   1.0000   1.0000   1.0000
     1.0000   1.0000   1.0000   1.0000   1.0000   1.0000   1.0000   1.0000

          k = 0.0000 0.0000-0.1331 ( 62988 PWs)   bands (ev):

   -17.9096 -17.9096 -17.9093 -17.9093 -17.9023 -17.9023 -17.9020 -17.9020
   -17.8984 -17.8984 -17.8978 -17.8978 -17.8878 -17.8878 -17.8864 -17.8864
   -17.8850 -17.8850 -17.8843 -17.8843 -17.8788 -17.8788 -17.8774 -17.8774
    -8.9449  -8.9449  -8.7177  -8.7177  -8.5938  -8.5938  -8.5619  -8.5619
    -8.4226  -8.4226  -8.3620  -8.3620  -4.6999  -4.6999  -4.6823  -4.6823
    -4.6614  -4.6614  -4.6249  -4.6249  -4.6180  -4.6180  -4.6163  -4.6163
    -3.0375  -3.0375  -2.9388  -2.9388   0.0650   0.0650   0.7039   0.7039
     0.7653   0.7653   1.0079   1.0079   1.1509   1.1509   1.1799   1.1799
     1.3933   1.3933   1.4539   1.4539   1.6685   1.6685   1.7011   1.7011
     1.7101   1.7101   1.8663   1.8663   2.0036   2.0036   2.1028   2.1028
     2.1072   2.1072   2.2426   2.2426   2.3225   2.3225   2.6349   2.6349

     occupation numbers 
     1.0000   1.0000   1.0000   1.0000   1.0000   1.0000   1.0000   1.0000
     1.0000   1.0000   1.0000   1.0000   1.0000   1.0000   1.0000   1.0000
     1.0000   1.0000   1.0000   1.0000   1.0000   1.0000   1.0000   1.0000
     1.0000   1.0000   1.0000   1.0000   1.0000   1.0000   1.0000   1.0000
     1.0000   1.0000   1.0000   1.0000   1.0000   1.0000   1.0000   1.0000
     1.0000   1.0000   1.0000   1.0000   1.0000   1.0000   1.0000   1.0000
     1.0000   1.0000   1.0000   1.0000   1.0000   1.0000   1.0000   1.0000
     1.0000   1.0000   1.0000   1.0000   1.0000   1.0000   1.0000   1.0000
     1.0000   1.0000   1.0000   1.0000   1.0000   1.0000   1.0000   1.0000
     1.0000   1.0000   1.0000   1.0000   1.0000   1.0000   1.0000   1.0000
     1.0000   1.0000   1.0000   1.0000   1.0000   1.0000   1.0000   1.0000

          k = 0.0000-0.2244 0.0000 ( 62958 PWs)   bands (ev):

   -17.9096 -17.9096 -17.9093 -17.9093 -17.9022 -17.9022 -17.9019 -17.9019
   -17.8985 -17.8985 -17.8978 -17.8978 -17.8877 -17.8877 -17.8864 -17.8864
   -17.8848 -17.8848 -17.8846 -17.8846 -17.8788 -17.8788 -17.8774 -17.8774
    -8.9220  -8.9220  -8.7606  -8.7606  -8.6405  -8.6405  -8.4966  -8.4966
    -8.4051  -8.4051  -8.3756  -8.3756  -4.7013  -4.7013  -4.6802  -4.6802
    -4.6549  -4.6549  -4.6369  -4.6369  -4.6215  -4.6215  -4.6197  -4.6197
    -3.0543  -3.0543  -2.9104  -2.9104   0.1050   0.1050   0.6782   0.6782
     0.8182   0.8182   1.0517   1.0517   1.0740   1.0740   1.1803   1.1803
     1.2861   1.2861   1.4241   1.4241   1.6249   1.6249   1.6564   1.6564
     1.8527   1.8527   1.8917   1.8917   1.9528   1.9528   2.1196   2.1196
     2.1486   2.1486   2.1993   2.1993   2.2621   2.2621   2.8121   2.8121

     occupation numbers 
     1.0000   1.0000   1.0000   1.0000   1.0000   1.0000   1.0000   1.0000
     1.0000   1.0000   1.0000   1.0000   1.0000   1.0000   1.0000   1.0000
     1.0000   1.0000   1.0000   1.0000   1.0000   1.0000   1.0000   1.0000
     1.0000   1.0000   1.0000   1.0000   1.0000   1.0000   1.0000   1.0000
     1.0000   1.0000   1.0000   1.0000   1.0000   1.0000   1.0000   1.0000
     1.0000   1.0000   1.0000   1.0000   1.0000   1.0000   1.0000   1.0000
     1.0000   1.0000   1.0000   1.0000   1.0000   1.0000   1.0000   1.0000
     1.0000   1.0000   1.0000   1.0000   1.0000   1.0000   1.0000   1.0000
     1.0000   1.0000   1.0000   1.0000   1.0000   1.0000   1.0000   1.0000
     1.0000   1.0000   1.0000   1.0000   1.0000   1.0000   1.0000   1.0000
     1.0000   1.0000   1.0000   1.0000   1.0000   1.0000   1.0000   1.0000

          k = 0.0000-0.2244-0.1331 ( 62996 PWs)   bands (ev):

   -17.9096 -17.9096 -17.9093 -17.9093 -17.9023 -17.9023 -17.9019 -17.9019
   -17.8985 -17.8985 -17.8978 -17.8978 -17.8877 -17.8877 -17.8864 -17.8864
   -17.8849 -17.8849 -17.8845 -17.8845 -17.8788 -17.8788 -17.8774 -17.8774
    -8.9221  -8.9221  -8.7609  -8.7609  -8.6384  -8.6384  -8.5022  -8.5022
    -8.3902  -8.3902  -8.3866  -8.3866  -4.6982  -4.6982  -4.6876  -4.6876
    -4.6498  -4.6498  -4.6376  -4.6376  -4.6215  -4.6215  -4.6197  -4.6197
    -3.0530  -3.0530  -2.9120  -2.9120   0.1105   0.1105   0.6688   0.6688
     0.8181   0.8181   1.0740   1.0740   1.0763   1.0763   1.1834   1.1834
     1.2220   1.2220   1.4358   1.4358   1.6262   1.6262   1.7007   1.7007
     1.8483   1.8483   1.8791   1.8791   1.9657   1.9657   2.1048   2.1048
     2.1734   2.1734   2.1775   2.1775   2.2764   2.2764   2.7944   2.7944

     occupation numbers 
     1.0000   1.0000   1.0000   1.0000   1.0000   1.0000   1.0000   1.0000
     1.0000   1.0000   1.0000   1.0000   1.0000   1.0000   1.0000   1.0000
     1.0000   1.0000   1.0000   1.0000   1.0000   1.0000   1.0000   1.0000
     1.0000   1.0000   1.0000   1.0000   1.0000   1.0000   1.0000   1.0000
     1.0000   1.0000   1.0000   1.0000   1.0000   1.0000   1.0000   1.0000
     1.0000   1.0000   1.0000   1.0000   1.0000   1.0000   1.0000   1.0000
     1.0000   1.0000   1.0000   1.0000   1.0000   1.0000   1.0000   1.0000
     1.0000   1.0000   1.0000   1.0000   1.0000   1.0000   1.0000   1.0000
     1.0000   1.0000   1.0000   1.0000   1.0000   1.0000   1.0000   1.0000
     1.0000   1.0000   1.0000   1.0000   1.0000   1.0000   1.0000   1.0000
     1.0000   1.0000   1.0000   1.0000   1.0000   1.0000   1.0000   1.0000

          k =-0.5000 0.0000 0.0000 ( 62996 PWs)   bands (ev):

   -17.9089 -17.9089 -17.9089 -17.9089 -17.9055 -17.9055 -17.9055 -17.9055
   -17.8980 -17.8980 -17.8980 -17.8980 -17.8834 -17.8834 -17.8834 -17.8834
   -17.8788 -17.8788 -17.8788 -17.8788 -17.8737 -17.8737 -17.8732 -17.8732
    -8.6369  -8.6369  -8.6346  -8.6346  -8.4584  -8.4584  -8.4496  -8.4496
    -8.4371  -8.4371  -8.4170  -8.4170  -4.8699  -4.8699  -4.8013  -4.8013
    -4.6862  -4.6862  -4.6771  -4.6771  -4.6627  -4.6627  -4.6333  -4.6333
    -3.3597  -3.3597  -3.3221  -3.3221  -0.0713  -0.0713  -0.0703  -0.0703
     0.4238   0.4238   0.4826   0.4826   0.7558   0.7558   0.7748   0.7748
     1.1082   1.1082   1.5091   1.5091   1.5519   1.5519   1.6605   1.6605
     1.6749   1.6749   1.7358   1.7358   1.7875   1.7875   1.8105   1.8105
     1.9435   1.9435   1.9839   1.9839   2.3941   2.3941   2.7828   2.7828

     occupation numbers 
     1.0000   1.0000   1.0000   1.0000   1.0000   1.0000   1.0000   1.0000
     1.0000   1.0000   1.0000   1.0000   1.0000   1.0000   1.0000   1.0000
     1.0000   1.0000   1.0000   1.0000   1.0000   1.0000   1.0000   1.0000
     1.0000   1.0000   1.0000   1.0000   1.0000   1.0000   1.0000   1.0000
     1.0000   1.0000   1.0000   1.0000   1.0000   1.0000   1.0000   1.0000
     1.0000   1.0000   1.0000   1.0000   1.0000   1.0000   1.0000   1.0000
     1.0000   1.0000   1.0000   1.0000   1.0000   1.0000   1.0000   1.0000
     1.0000   1.0000   1.0000   1.0000   1.0000   1.0000   1.0000   1.0000
     1.0000   1.0000   1.0000   1.0000   1.0000   1.0000   1.0000   1.0000
     1.0000   1.0000   1.0000   1.0000   1.0000   1.0000   1.0000   1.0000
     1.0000   1.0000   1.0000   1.0000   1.0000   1.0000   1.0000   1.0000

          k =-0.5000 0.0000-0.1331 ( 63064 PWs)   bands (ev):

   -17.9089 -17.9089 -17.9089 -17.9089 -17.9055 -17.9055 -17.9055 -17.9055
   -17.8980 -17.8980 -17.8980 -17.8980 -17.8834 -17.8834 -17.8834 -17.8834
   -17.8789 -17.8789 -17.8788 -17.8788 -17.8737 -17.8737 -17.8732 -17.8732
    -8.6375  -8.6375  -8.6341  -8.6341  -8.4578  -8.4578  -8.4505  -8.4505
    -8.4368  -8.4368  -8.4170  -8.4170  -4.8698  -4.8698  -4.8013  -4.8013
    -4.6865  -4.6865  -4.6771  -4.6771  -4.6624  -4.6624  -4.6334  -4.6334
    -3.3527  -3.3527  -3.3293  -3.3293  -0.0847  -0.0847  -0.0513  -0.0513
     0.4430   0.4430   0.4895   0.4895   0.7013   0.7013   0.7421   0.7421
     1.1990   1.1990   1.4773   1.4773   1.5636   1.5636   1.6768   1.6768
     1.6797   1.6797   1.7075   1.7075   1.7162   1.7162   1.8427   1.8427
     1.9374   1.9374   2.0152   2.0152   2.4558   2.4558   2.7216   2.7216

     occupation numbers 
     1.0000   1.0000   1.0000   1.0000   1.0000   1.0000   1.0000   1.0000
     1.0000   1.0000   1.0000   1.0000   1.0000   1.0000   1.0000   1.0000
     1.0000   1.0000   1.0000   1.0000   1.0000   1.0000   1.0000   1.0000
     1.0000   1.0000   1.0000   1.0000   1.0000   1.0000   1.0000   1.0000
     1.0000   1.0000   1.0000   1.0000   1.0000   1.0000   1.0000   1.0000
     1.0000   1.0000   1.0000   1.0000   1.0000   1.0000   1.0000   1.0000
     1.0000   1.0000   1.0000   1.0000   1.0000   1.0000   1.0000   1.0000
     1.0000   1.0000   1.0000   1.0000   1.0000   1.0000   1.0000   1.0000
     1.0000   1.0000   1.0000   1.0000   1.0000   1.0000   1.0000   1.0000
     1.0000   1.0000   1.0000   1.0000   1.0000   1.0000   1.0000   1.0000
     1.0000   1.0000   1.0000   1.0000   1.0000   1.0000   1.0000   1.0000

          k =-0.5000-0.2244 0.0000 ( 63092 PWs)   bands (ev):

   -17.9089 -17.9089 -17.9089 -17.9089 -17.9055 -17.9055 -17.9055 -17.9055
   -17.8981 -17.8981 -17.8981 -17.8981 -17.8834 -17.8834 -17.8834 -17.8834
   -17.8788 -17.8788 -17.8788 -17.8788 -17.8734 -17.8734 -17.8734 -17.8734
    -8.6358  -8.6358  -8.6358  -8.6358  -8.4550  -8.4550  -8.4550  -8.4550
    -8.4261  -8.4261  -8.4261  -8.4261  -4.8357  -4.8357  -4.8357  -4.8357
    -4.6793  -4.6793  -4.6793  -4.6793  -4.6502  -4.6502  -4.6502  -4.6502
    -3.3416  -3.3416  -3.3416  -3.3416   0.0754   0.0754   0.0754   0.0754
     0.2951   0.2951   0.2951   0.2951   0.7059   0.7059   0.7059   0.7059
     1.3264   1.3264   1.3264   1.3264   1.5127   1.5127   1.5127   1.5127
     1.6788   1.6788   1.6788   1.6788   1.8063   1.8063   1.8063   1.8063
     2.0368   2.0368   2.0368   2.0368   2.7471   2.7471   2.7471   2.7471

     occupation numbers 
     1.0000   1.0000   1.0000   1.0000   1.0000   1.0000   1.0000   1.0000
     1.0000   1.0000   1.0000   1.0000   1.0000   1.0000   1.0000   1.0000
     1.0000   1.0000   1.0000   1.0000   1.0000   1.0000   1.0000   1.0000
     1.0000   1.0000   1.0000   1.0000   1.0000   1.0000   1.0000   1.0000
     1.0000   1.0000   1.0000   1.0000   1.0000   1.0000   1.0000   1.0000
     1.0000   1.0000   1.0000   1.0000   1.0000   1.0000   1.0000   1.0000
     1.0000   1.0000   1.0000   1.0000   1.0000   1.0000   1.0000   1.0000
     1.0000   1.0000   1.0000   1.0000   1.0000   1.0000   1.0000   1.0000
     1.0000   1.0000   1.0000   1.0000   1.0000   1.0000   1.0000   1.0000
     1.0000   1.0000   1.0000   1.0000   1.0000   1.0000   1.0000   1.0000
     1.0000   1.0000   1.0000   1.0000   1.0000   1.0000   1.0000   1.0000

          k =-0.5000-0.2244-0.1331 ( 63040 PWs)   bands (ev):

   -17.9089 -17.9089 -17.9089 -17.9089 -17.9055 -17.9055 -17.9055 -17.9055
   -17.8980 -17.8980 -17.8980 -17.8980 -17.8834 -17.8834 -17.8834 -17.8834
   -17.8788 -17.8788 -17.8788 -17.8788 -17.8734 -17.8734 -17.8734 -17.8734
    -8.6358  -8.6358  -8.6358  -8.6358  -8.4550  -8.4550  -8.4550  -8.4550
    -8.4261  -8.4261  -8.4261  -8.4261  -4.8357  -4.8357  -4.8357  -4.8357
    -4.6792  -4.6792  -4.6792  -4.6792  -4.6503  -4.6503  -4.6503  -4.6503
    -3.3416  -3.3416  -3.3416  -3.3416   0.0690   0.0690   0.0690   0.0690
     0.2982   0.2982   0.2982   0.2982   0.7326   0.7326   0.7326   0.7326
     1.2386   1.2386   1.2386   1.2386   1.5872   1.5872   1.5872   1.5872
     1.6816   1.6816   1.6816   1.6816   1.8267   1.8267   1.8267   1.8267
     1.9960   1.9960   1.9960   1.9960   2.7567   2.7567   2.7567   2.7567

     occupation numbers 
     1.0000   1.0000   1.0000   1.0000   1.0000   1.0000   1.0000   1.0000
     1.0000   1.0000   1.0000   1.0000   1.0000   1.0000   1.0000   1.0000
     1.0000   1.0000   1.0000   1.0000   1.0000   1.0000   1.0000   1.0000
     1.0000   1.0000   1.0000   1.0000   1.0000   1.0000   1.0000   1.0000
     1.0000   1.0000   1.0000   1.0000   1.0000   1.0000   1.0000   1.0000
     1.0000   1.0000   1.0000   1.0000   1.0000   1.0000   1.0000   1.0000
     1.0000   1.0000   1.0000   1.0000   1.0000   1.0000   1.0000   1.0000
     1.0000   1.0000   1.0000   1.0000   1.0000   1.0000   1.0000   1.0000
     1.0000   1.0000   1.0000   1.0000   1.0000   1.0000   1.0000   1.0000
     1.0000   1.0000   1.0000   1.0000   1.0000   1.0000   1.0000   1.0000
     1.0000   1.0000   1.0000   1.0000   1.0000   1.0000   1.0000   1.0000

     highest occupied level (ev):     2.8121

!    total energy              =   -6438.75988486 Ry
     estimated scf accuracy    <       0.00000043 Ry

     The total energy is the sum of the following terms:
     one-electron contribution =    -468.64985248 Ry
     hartree contribution      =     316.30533621 Ry
     xc contribution           =    -462.52365768 Ry
     ewald contribution        =    -633.56960439 Ry
     one-center paw contrib.   =   -5190.32210652 Ry
      -> PAW hartree energy AE =       0.00000000 Ry
      -> PAW hartree energy PS =       0.00000000 Ry
      -> PAW xc energy AE      =       0.00000000 Ry
      -> PAW xc energy PS      =       0.00000000 Ry
      -> total E_H with PAW    =     316.30533621 Ry
      -> total E_XC with PAW   =    -462.52365768 Ry

     convergence has been achieved in  10 iterations

     Forces acting on atoms (cartesian axes, Ry/au):

     atom    1 type  1   force =     0.00000000   -0.00095580    0.00074970
     atom    2 type  1   force =     0.00000000    0.00095580   -0.00074970
     atom    3 type  1   force =     0.00000000   -0.00095580   -0.00074970
     atom    4 type  1   force =     0.00000000    0.00095580    0.00074970
     atom    5 type  2   force =     0.00000000   -0.00184002   -0.00122148
     atom    6 type  2   force =     0.00000000    0.00184002    0.00122148
     atom    7 type  2   force =     0.00000000   -0.00184002    0.00122148
     atom    8 type  2   force =     0.00000000    0.00184002   -0.00122148
     atom    9 type  3   force =     0.00000000   -0.00693693   -0.00594667
     atom   10 type  3   force =     0.00000000    0.00693693    0.00594667
     atom   11 type  3   force =     0.00000000   -0.00693693    0.00594667
     atom   12 type  3   force =     0.00000000    0.00693693   -0.00594667
     atom   13 type  3   force =     0.00000000   -0.00279409    0.00440196
     atom   14 type  3   force =     0.00000000    0.00279409   -0.00440196
     atom   15 type  3   force =     0.00000000   -0.00279409   -0.00440196
     atom   16 type  3   force =     0.00000000    0.00279409    0.00440196
     atom   17 type  3   force =     0.00000000    0.00672655   -0.00443085
     atom   18 type  3   force =     0.00000000   -0.00672655    0.00443085
     atom   19 type  3   force =     0.00000000    0.00672655    0.00443085
     atom   20 type  3   force =     0.00000000   -0.00672655   -0.00443085
     The non-local contrib.  to forces
     atom    1 type  1   force =     0.00000000    0.00225921   -0.00111141
     atom    2 type  1   force =     0.00000000   -0.00225921    0.00111141
     atom    3 type  1   force =     0.00000000    0.00225921    0.00111141
     atom    4 type  1   force =     0.00000000   -0.00225921   -0.00111141
     atom    5 type  2   force =     0.00000000   -0.08495654   -0.12684329
     atom    6 type  2   force =     0.00000000    0.08495654    0.12684329
     atom    7 type  2   force =     0.00000000   -0.08495654    0.12684329
     atom    8 type  2   force =     0.00000000    0.08495654   -0.12684329
     atom    9 type  3   force =     0.00000000   -0.04948897   -0.04878879
     atom   10 type  3   force =     0.00000000    0.04948897    0.04878879
     atom   11 type  3   force =    -0.00000000   -0.04948897    0.04878879
     atom   12 type  3   force =     0.00000000    0.04948897   -0.04878879
     atom   13 type  3   force =     0.00000000   -0.03344668    0.05682068
     atom   14 type  3   force =     0.00000000    0.03344668   -0.05682068
     atom   15 type  3   force =     0.00000000   -0.03344668   -0.05682068
     atom   16 type  3   force =     0.00000000    0.03344668    0.05682068
     atom   17 type  3   force =     0.00000000    0.05730702   -0.01810480
     atom   18 type  3   force =     0.00000000   -0.05730702    0.01810480
     atom   19 type  3   force =    -0.00000000    0.05730702    0.01810480
     atom   20 type  3   force =    -0.00000000   -0.05730702   -0.01810480
     The ionic contribution  to forces
     atom    1 type  1   force =    -0.00000000    0.02273773    0.42856976
     atom    2 type  1   force =    -0.00000000   -0.02273773   -0.42856976
     atom    3 type  1   force =    -0.00000000    0.02273773   -0.42856976
     atom    4 type  1   force =     0.00000000   -0.02273773    0.42856976
     atom    5 type  2   force =     0.00000000   -2.44382135   -1.60292983
     atom    6 type  2   force =     0.00000000    2.44382135    1.60292983
     atom    7 type  2   force =    -0.00000000   -2.44382135    1.60292983
     atom    8 type  2   force =     0.00000000    2.44382135   -1.60292983
     atom    9 type  3   force =    -0.00000000    3.00608891    5.13288893
     atom   10 type  3   force =     0.00000000   -3.00608891   -5.13288893
     atom   11 type  3   force =    -0.00000000    3.00608891   -5.13288893
     atom   12 type  3   force =    -0.00000000   -3.00608891    5.13288893
     atom   13 type  3   force =     0.00000000    2.02422849   -3.75281499
     atom   14 type  3   force =     0.00000000   -2.02422849    3.75281499
     atom   15 type  3   force =    -0.00000000    2.02422849    3.75281499
     atom   16 type  3   force =    -0.00000000   -2.02422849   -3.75281499
     atom   17 type  3   force =     0.00000000   -4.20564473    2.10270404
     atom   18 type  3   force =    -0.00000000    4.20564473   -2.10270404
     atom   19 type  3   force =     0.00000000   -4.20564473   -2.10270404
     atom   20 type  3   force =    -0.00000000    4.20564473    2.10270404
     The local contribution  to forces
     atom    1 type  1   force =    -0.00000000   -0.02586411   -0.42649871
     atom    2 type  1   force =     0.00000000    0.02586411    0.42649871
     atom    3 type  1   force =    -0.00000000   -0.02586411    0.42649871
     atom    4 type  1   force =     0.00000000    0.02586411   -0.42649871
     atom    5 type  2   force =    -0.00000000    2.52804186    1.72856757
     atom    6 type  2   force =    -0.00000000   -2.52804186   -1.72856757
     atom    7 type  2   force =    -0.00000000    2.52804186   -1.72856757
     atom    8 type  2   force =    -0.00000000   -2.52804186    1.72856757
     atom    9 type  3   force =     0.00000000   -2.96881937   -5.09557880
     atom   10 type  3   force =     0.00000000    2.96881937    5.09557880
     atom   11 type  3   force =    -0.00000000   -2.96881937    5.09557880
     atom   12 type  3   force =     0.00000000    2.96881937   -5.09557880
     atom   13 type  3   force =     0.00000000   -1.99697929    3.70608063
     atom   14 type  3   force =    -0.00000000    1.99697929   -3.70608063
     atom   15 type  3   force =     0.00000000   -1.99697929   -3.70608063
     atom   16 type  3   force =    -0.00000000    1.99697929    3.70608063
     atom   17 type  3   force =     0.00000000    4.16167629   -2.09115501
     atom   18 type  3   force =    -0.00000000   -4.16167629    2.09115501
     atom   19 type  3   force =     0.00000000    4.16167629    2.09115501
     atom   20 type  3   force =    -0.00000000   -4.16167629   -2.09115501
     The core correction contribution to forces
     atom    1 type  1   force =    -0.00000000   -0.00002120   -0.00004417
     atom    2 type  1   force =     0.00000000    0.00002120    0.00004417
     atom    3 type  1   force =    -0.00000000   -0.00002120    0.00004417
     atom    4 type  1   force =     0.00000000    0.00002120   -0.00004417
     atom    5 type  2   force =    -0.00000000    0.00015674   -0.00002355
     atom    6 type  2   force =    -0.00000000   -0.00015674    0.00002355
     atom    7 type  2   force =     0.00000000    0.00015674    0.00002355
     atom    8 type  2   force =    -0.00000000   -0.00015674   -0.00002355
     atom    9 type  3   force =     0.00000000    0.00520401    0.00541798
     atom   10 type  3   force =    -0.00000000   -0.00520401   -0.00541798
     atom   11 type  3   force =     0.00000000    0.00520401   -0.00541798
     atom   12 type  3   force =     0.00000000   -0.00520401    0.00541798
     atom   13 type  3   force =    -0.00000000    0.00331182   -0.00570662
     atom   14 type  3   force =     0.00000000   -0.00331182    0.00570662
     atom   15 type  3   force =    -0.00000000    0.00331182    0.00570662
     atom   16 type  3   force =     0.00000000   -0.00331182   -0.00570662
     atom   17 type  3   force =    -0.00000000   -0.00644816    0.00212415
     atom   18 type  3   force =     0.00000000    0.00644816   -0.00212415
     atom   19 type  3   force =    -0.00000000   -0.00644816   -0.00212415
     atom   20 type  3   force =     0.00000000    0.00644816    0.00212415
     The Hubbard contrib.    to forces
     atom    1 type  1   force =     0.00000000    0.00000000    0.00000000
     atom    2 type  1   force =     0.00000000    0.00000000    0.00000000
     atom    3 type  1   force =     0.00000000    0.00000000    0.00000000
     atom    4 type  1   force =     0.00000000    0.00000000    0.00000000
     atom    5 type  2   force =     0.00000000    0.00000000    0.00000000
     atom    6 type  2   force =     0.00000000    0.00000000    0.00000000
     atom    7 type  2   force =     0.00000000    0.00000000    0.00000000
     atom    8 type  2   force =     0.00000000    0.00000000    0.00000000
     atom    9 type  3   force =     0.00000000    0.00000000    0.00000000
     atom   10 type  3   force =     0.00000000    0.00000000    0.00000000
     atom   11 type  3   force =     0.00000000    0.00000000    0.00000000
     atom   12 type  3   force =     0.00000000    0.00000000    0.00000000
     atom   13 type  3   force =     0.00000000    0.00000000    0.00000000
     atom   14 type  3   force =     0.00000000    0.00000000    0.00000000
     atom   15 type  3   force =     0.00000000    0.00000000    0.00000000
     atom   16 type  3   force =     0.00000000    0.00000000    0.00000000
     atom   17 type  3   force =     0.00000000    0.00000000    0.00000000
     atom   18 type  3   force =     0.00000000    0.00000000    0.00000000
     atom   19 type  3   force =     0.00000000    0.00000000    0.00000000
     atom   20 type  3   force =     0.00000000    0.00000000    0.00000000
     The SCF correction term to forces
     atom    1 type  1   force =    -0.00000000   -0.00006743   -0.00016577
     atom    2 type  1   force =     0.00000000    0.00006743    0.00016577
     atom    3 type  1   force =     0.00000000   -0.00006743    0.00016577
     atom    4 type  1   force =    -0.00000000    0.00006743   -0.00016577
     atom    5 type  2   force =    -0.00000000   -0.00126072    0.00000763
     atom    6 type  2   force =     0.00000000    0.00126072   -0.00000763
     atom    7 type  2   force =     0.00000000   -0.00126072   -0.00000763
     atom    8 type  2   force =     0.00000000    0.00126072    0.00000763
     atom    9 type  3   force =     0.00000000    0.00007849    0.00011401
     atom   10 type  3   force =    -0.00000000   -0.00007849   -0.00011401
     atom   11 type  3   force =    -0.00000000    0.00007849   -0.00011401
     atom   12 type  3   force =    -0.00000000   -0.00007849    0.00011401
     atom   13 type  3   force =     0.00000000    0.00009156    0.00002225
     atom   14 type  3   force =     0.00000000   -0.00009156   -0.00002225
     atom   15 type  3   force =    -0.00000000    0.00009156   -0.00002225
     atom   16 type  3   force =     0.00000000   -0.00009156    0.00002225
     atom   17 type  3   force =     0.00000000   -0.00016386    0.00000076
     atom   18 type  3   force =    -0.00000000    0.00016386   -0.00000076
     atom   19 type  3   force =     0.00000000   -0.00016386   -0.00000076
     atom   20 type  3   force =    -0.00000000    0.00016386    0.00000076

     Total force =     0.026974     Total SCF correction =     0.002590


     Computing stress (Cartesian axis) and pressure

          total   stress  (Ry/bohr**3)                   (kbar)     P=      -13.26
  -0.00006346   0.00000000   0.00000000           -9.34        0.00        0.00
   0.00000000  -0.00010725   0.00000000            0.00      -15.78        0.00
   0.00000000   0.00000000  -0.00009963            0.00        0.00      -14.66

     kinetic stress (kbar)   5524.66      0.00      0.00
                                0.00   5524.89      0.00
                                0.00      0.00   5520.90

     local   stress (kbar)  -4567.15      0.00      0.00
                                0.00  -1923.50      0.00
                                0.00      0.00  -1031.19

     nonloc. stress (kbar)   1166.46      0.00      0.00
                                0.00   1161.80      0.00
                                0.00      0.00   1165.05

     hartree stress (kbar)   3403.48     -0.00     -0.00
                               -0.00   2185.08      0.00
                               -0.00      0.00   1715.39

     exc-cor stress (kbar)   5446.13      0.00      0.00
                                0.00   5446.02      0.00
                                0.00      0.00   5446.26

     corecor stress (kbar)  -7198.12     -0.00     -0.00
                               -0.00  -7197.90     -0.00
                               -0.00     -0.00  -7197.98

     ewald   stress (kbar)  -3784.80      0.00     -0.00
                                0.00  -5212.16      0.00
                               -0.00      0.00  -5633.09

     hubbard stress (kbar)      0.00      0.00      0.00
                                0.00      0.00      0.00
                                0.00      0.00      0.00

     DFT-D   stress (kbar)      0.00      0.00      0.00
                                0.00      0.00      0.00
                                0.00      0.00      0.00

     XDM     stress (kbar)      0.00      0.00      0.00
                                0.00      0.00      0.00
                                0.00      0.00      0.00

     dft-nl  stress (kbar)      0.00      0.00      0.00
                                0.00      0.00      0.00
                                0.00      0.00      0.00

     TS-vdW  stress (kbar)      0.00      0.00      0.00
                                0.00      0.00      0.00
                                0.00      0.00      0.00



     Writing output data file ./CsSnI3.save/
 
     init_run     :      6.61s CPU      8.13s WALL (       1 calls)
     electrons    :    128.80s CPU    135.39s WALL (       1 calls)
     forces       :      3.57s CPU      3.76s WALL (       1 calls)
     stress       :     21.16s CPU     21.61s WALL (       1 calls)

     Called by init_run:
     wfcinit      :      2.92s CPU      3.42s WALL (       1 calls)
     wfcinit:atom :      0.03s CPU      0.03s WALL (       8 calls)
     wfcinit:wfcr :      2.75s CPU      3.22s WALL (       8 calls)
     potinit      :      0.80s CPU      0.83s WALL (       1 calls)
     hinit0       :      1.07s CPU      1.84s WALL (       1 calls)

     Called by electrons:
     c_bands      :     99.03s CPU    100.78s WALL (      11 calls)
     sum_band     :     19.82s CPU     22.81s WALL (      11 calls)
     v_of_rho     :      1.02s CPU      1.06s WALL (      11 calls)
     v_h          :      0.08s CPU      0.08s WALL (      11 calls)
     v_xc         :      1.11s CPU      1.15s WALL (      13 calls)
     newd         :      7.80s CPU      9.65s WALL (      11 calls)
     PAW_pot      :      1.85s CPU      1.85s WALL (      11 calls)
     mix_rho      :      0.25s CPU      0.34s WALL (      11 calls)

     Called by c_bands:
     init_us_2    :      2.15s CPU      2.18s WALL (     200 calls)
     cegterg      :     91.29s CPU     93.00s WALL (      88 calls)

     Called by sum_band:
     sum_band:wei :      0.00s CPU      0.00s WALL (      11 calls)
     sum_band:loo :     11.16s CPU     11.42s WALL (      11 calls)
     sum_band:buf :      0.23s CPU      0.24s WALL (      88 calls)
     sum_band:ini :      0.94s CPU      0.96s WALL (      88 calls)
     sum_band:cal :      2.40s CPU      2.51s WALL (      88 calls)
     sum_band:bec :      0.09s CPU      0.09s WALL (      88 calls)
     addusdens    :      8.24s CPU     10.97s WALL (      11 calls)
     addusd:skk   :      0.05s CPU      0.06s WALL (      33 calls)
     addusd:dgemm :      3.47s CPU      6.13s WALL (      33 calls)
     addusd:qvan2 :      4.41s CPU      4.41s WALL (      33 calls)

     Called by *egterg:
     cdiaghg      :      6.68s CPU      7.27s WALL (     538 calls)
     cegterg:over :      6.21s CPU      6.35s WALL (     458 calls)
     cegterg:upda :      2.69s CPU      2.70s WALL (     458 calls)
     cegterg:last :      5.17s CPU      5.18s WALL (     238 calls)
     h_psi        :     61.85s CPU     63.17s WALL (     554 calls)
     s_psi        :      7.65s CPU      7.71s WALL (     554 calls)
     g_psi        :      0.13s CPU      0.14s WALL (     458 calls)

     Called by h_psi:
     h_psi:calbec :      8.86s CPU      9.39s WALL (     554 calls)
     vloc_psi     :     44.89s CPU     45.61s WALL (     554 calls)
     add_vuspsi   :      7.52s CPU      7.58s WALL (     554 calls)

     General routines
     calbec       :     12.51s CPU     13.15s WALL (     682 calls)
     fft          :      1.15s CPU      1.55s WALL (     167 calls)
     ffts         :      0.06s CPU      0.06s WALL (      22 calls)
     fftw         :     48.74s CPU     49.53s WALL (   58408 calls)
     interpolate  :      0.09s CPU      0.09s WALL (      11 calls)
 
     Parallel routines
     fft_scatt_xy :      3.93s CPU      3.98s WALL (   58597 calls)
     fft_scatt_yz :     30.06s CPU     30.58s WALL (   58597 calls)

     PAW routines
     PAW_pot      :      1.85s CPU      1.85s WALL (      11 calls)
     PAW_symme    :      0.06s CPU      0.06s WALL (      22 calls)
 
     PWSCF        :   2m47.60s CPU   2m58.54s WALL

 
   This run was terminated on:  21:53:22  24Jan2021            

=------------------------------------------------------------------------------=
   JOB DONE.
=------------------------------------------------------------------------------=
