
     Program PWSCF v.6.6 starts on 31Jan2021 at 11:40:47 

     This program is part of the open-source Quantum ESPRESSO suite
     for quantum simulation of materials; please cite
         "P. Giannozzi et al., J. Phys.:Condens. Matter 21 395502 (2009);
         "P. Giannozzi et al., J. Phys.:Condens. Matter 29 465901 (2017);
          URL http://www.quantum-espresso.org", 
     in publications or presentations arising from this work. More details at
     http://www.quantum-espresso.org/quote

     Parallel version (MPI), running on    32 processors

     MPI processes distributed on     1 nodes
     R & G space division:  proc/nbgrp/npool/nimage =      32
     Fft bands division:     nmany     =       1
     Waiting for input...
     Reading input from standard input

     Current dimensions of program PWSCF are:
     Max number of different atomic species (ntypx) = 10
     Max number of k-points (npk) =  40000
     Max angular momentum in pseudopotentials (lmaxx) =  3
     file Sn.rel-pbe-dn-rrkjus_psl.1.0.0.UPF: wavefunction(s)  5S 4D 4D renormalized

     Subspace diagonalization in iterative solution of the eigenvalue problem:
     a serial algorithm will be used

 
     Parallelization info
     --------------------
     sticks:   dense  smooth     PW     G-vecs:    dense   smooth      PW
     Min         165     165     44                 5571     5571     780
     Max         166     166     45                 5573     5573     783
     Sum        5297    5297   1433               178307   178307   25003
 

     Title: 
     SnI2                                                                       


     bravais-lattice index     =            6
     lattice parameter (alat)  =      14.4199  a.u.
     unit-cell volume          =    1845.1511 (a.u.)^3
     number of atoms/cell      =            6
     number of atomic types    =            2
     number of electrons       =        56.00
     number of Kohn-Sham states=           57
     kinetic-energy cutoff     =      80.0000  Ry
     charge density cutoff     =     320.0000  Ry
     convergence threshold     =      1.0E-06
     mixing beta               =       0.6000
     number of iterations used =            8  plain     mixing
     Exchange-correlation= PBE
                           (   1   4   3   4   0   0   0)
     Non magnetic calculation with spin-orbit


     celldm(1)=  14.419944  celldm(2)=   1.000000  celldm(3)=   0.615377
     celldm(4)=   0.000000  celldm(5)=   0.000000  celldm(6)=   0.000000

     crystal axes: (cart. coord. in units of alat)
               a(1) = (   1.000000   0.000000   0.000000 )  
               a(2) = (   0.000000   1.000000   0.000000 )  
               a(3) = (   0.000000   0.000000   0.615377 )  

     reciprocal axes: (cart. coord. in units 2 pi/alat)
               b(1) = (  1.000000  0.000000  0.000000 )  
               b(2) = (  0.000000  1.000000  0.000000 )  
               b(3) = (  0.000000  0.000000  1.625020 )  


     PseudoPot. # 1 for Sn read from file:
     /scratch/afiorent/degironcoli/pseudo/pseudo-usp/Sn.rel-pbe-dn-rrkjus_psl.1.0.0.UPF
     MD5 check sum: e9415cc9ba1036dfb73502962f03961a
     Pseudo is Ultrasoft + core correction, Zval = 14.0
     Generated using "atomic" code by A. Dal Corso v.6.3
     Using radial grid of 1243 points, 10 beta functions with: 
                l(1) =   0
                l(2) =   0
                l(3) =   1
                l(4) =   1
                l(5) =   1
                l(6) =   1
                l(7) =   2
                l(8) =   2
                l(9) =   2
               l(10) =   2
     Q(r) pseudized with 0 coefficients 


     PseudoPot. # 2 for I  read from file:
     /scratch/afiorent/degironcoli/pseudo/pseudo-usp/I.rel-pbe-n-rrkjus_psl.0.2.2.UPF
     MD5 check sum: b9024a078df971004264c9bcc9ff756e
     Pseudo is Ultrasoft + core correction, Zval =  7.0
     Generated using "atomic" code by A. Dal Corso v.5.0.2 svn rev. 9415
     Using radial grid of 1247 points,  6 beta functions with: 
                l(1) =   0
                l(2) =   0
                l(3) =   1
                l(4) =   1
                l(5) =   1
                l(6) =   1
     Q(r) pseudized with 0 coefficients 


     atomic species   valence    mass     pseudopotential
        Sn            14.00   118.70000     Sn( 1.00)
        I              7.00   126.90000     I ( 1.00)

     16 Sym. Ops., with inversion, found ( 8 have fractional translation)


                                    s                        frac. trans.

      isym =  1     identity                                     

 cryst.   s( 1) = (     1          0          0      )
                  (     0          1          0      )
                  (     0          0          1      )

 cart.    s( 1) = (  1.0000000  0.0000000  0.0000000 )
                  (  0.0000000  1.0000000  0.0000000 )
                  (  0.0000000  0.0000000  1.0000000 )


      isym =  2     180 deg rotation - cart. axis [0,0,1]        

 cryst.   s( 2) = (    -1          0          0      )
                  (     0         -1          0      )
                  (     0          0          1      )

 cart.    s( 2) = ( -1.0000000  0.0000000  0.0000000 )
                  (  0.0000000 -1.0000000  0.0000000 )
                  (  0.0000000  0.0000000  1.0000000 )


      isym =  3     180 deg rotation - cart. axis [0,1,0]        

 cryst.   s( 3) = (    -1          0          0      )    f =(  0.5000000 )
                  (     0          1          0      )       ( -0.5000000 )
                  (     0          0         -1      )       (  0.5000000 )

 cart.    s( 3) = ( -1.0000000  0.0000000  0.0000000 )    f =(  0.5000000 )
                  (  0.0000000  1.0000000  0.0000000 )       ( -0.5000000 )
                  (  0.0000000  0.0000000 -1.0000000 )       (  0.3076884 )


      isym =  4     180 deg rotation - cart. axis [1,0,0]        

 cryst.   s( 4) = (     1          0          0      )    f =( -0.5000000 )
                  (     0         -1          0      )       (  0.5000000 )
                  (     0          0         -1      )       (  0.5000000 )

 cart.    s( 4) = (  1.0000000  0.0000000  0.0000000 )    f =( -0.5000000 )
                  (  0.0000000 -1.0000000  0.0000000 )       (  0.5000000 )
                  (  0.0000000  0.0000000 -1.0000000 )       (  0.3076884 )


      isym =  5     180 deg rotation - cart. axis [1,1,0]        

 cryst.   s( 5) = (     0          1          0      )
                  (     1          0          0      )
                  (     0          0         -1      )

 cart.    s( 5) = (  0.0000000  1.0000000  0.0000000 )
                  (  1.0000000  0.0000000  0.0000000 )
                  (  0.0000000  0.0000000 -1.0000000 )


      isym =  6     180 deg rotation - cart. axis [1,-1,0]       

 cryst.   s( 6) = (     0         -1          0      )
                  (    -1          0          0      )
                  (     0          0         -1      )

 cart.    s( 6) = (  0.0000000 -1.0000000  0.0000000 )
                  ( -1.0000000  0.0000000  0.0000000 )
                  (  0.0000000  0.0000000 -1.0000000 )


      isym =  7      90 deg rotation - cart. axis [0,0,-1]       

 cryst.   s( 7) = (     0         -1          0      )    f =( -0.5000000 )
                  (     1          0          0      )       (  0.5000000 )
                  (     0          0          1      )       ( -0.5000000 )

 cart.    s( 7) = (  0.0000000  1.0000000  0.0000000 )    f =( -0.5000000 )
                  ( -1.0000000  0.0000000  0.0000000 )       (  0.5000000 )
                  (  0.0000000  0.0000000  1.0000000 )       ( -0.3076884 )


      isym =  8      90 deg rotation - cart. axis [0,0,1]        

 cryst.   s( 8) = (     0          1          0      )    f =(  0.5000000 )
                  (    -1          0          0      )       ( -0.5000000 )
                  (     0          0          1      )       ( -0.5000000 )

 cart.    s( 8) = (  0.0000000 -1.0000000  0.0000000 )    f =(  0.5000000 )
                  (  1.0000000  0.0000000  0.0000000 )       ( -0.5000000 )
                  (  0.0000000  0.0000000  1.0000000 )       ( -0.3076884 )


      isym =  9     inversion                                    

 cryst.   s( 9) = (    -1          0          0      )
                  (     0         -1          0      )
                  (     0          0         -1      )

 cart.    s( 9) = ( -1.0000000  0.0000000  0.0000000 )
                  (  0.0000000 -1.0000000  0.0000000 )
                  (  0.0000000  0.0000000 -1.0000000 )


      isym = 10     inv. 180 deg rotation - cart. axis [0,0,1]   

 cryst.   s(10) = (     1          0          0      )
                  (     0          1          0      )
                  (     0          0         -1      )

 cart.    s(10) = (  1.0000000  0.0000000  0.0000000 )
                  (  0.0000000  1.0000000  0.0000000 )
                  (  0.0000000  0.0000000 -1.0000000 )


      isym = 11     inv. 180 deg rotation - cart. axis [0,1,0]   

 cryst.   s(11) = (     1          0          0      )    f =( -0.5000000 )
                  (     0         -1          0      )       (  0.5000000 )
                  (     0          0          1      )       ( -0.5000000 )

 cart.    s(11) = (  1.0000000  0.0000000  0.0000000 )    f =( -0.5000000 )
                  (  0.0000000 -1.0000000  0.0000000 )       (  0.5000000 )
                  (  0.0000000  0.0000000  1.0000000 )       ( -0.3076884 )


      isym = 12     inv. 180 deg rotation - cart. axis [1,0,0]   

 cryst.   s(12) = (    -1          0          0      )    f =(  0.5000000 )
                  (     0          1          0      )       ( -0.5000000 )
                  (     0          0          1      )       ( -0.5000000 )

 cart.    s(12) = ( -1.0000000  0.0000000  0.0000000 )    f =(  0.5000000 )
                  (  0.0000000  1.0000000  0.0000000 )       ( -0.5000000 )
                  (  0.0000000  0.0000000  1.0000000 )       ( -0.3076884 )


      isym = 13     inv. 180 deg rotation - cart. axis [1,1,0]   

 cryst.   s(13) = (     0         -1          0      )
                  (    -1          0          0      )
                  (     0          0          1      )

 cart.    s(13) = (  0.0000000 -1.0000000  0.0000000 )
                  ( -1.0000000  0.0000000  0.0000000 )
                  (  0.0000000  0.0000000  1.0000000 )


      isym = 14     inv. 180 deg rotation - cart. axis [1,-1,0]  

 cryst.   s(14) = (     0          1          0      )
                  (     1          0          0      )
                  (     0          0          1      )

 cart.    s(14) = (  0.0000000  1.0000000  0.0000000 )
                  (  1.0000000  0.0000000  0.0000000 )
                  (  0.0000000  0.0000000  1.0000000 )


      isym = 15     inv.  90 deg rotation - cart. axis [0,0,-1]  

 cryst.   s(15) = (     0          1          0      )    f =(  0.5000000 )
                  (    -1          0          0      )       ( -0.5000000 )
                  (     0          0         -1      )       (  0.5000000 )

 cart.    s(15) = (  0.0000000 -1.0000000  0.0000000 )    f =(  0.5000000 )
                  (  1.0000000  0.0000000  0.0000000 )       ( -0.5000000 )
                  (  0.0000000  0.0000000 -1.0000000 )       (  0.3076884 )


      isym = 16     inv.  90 deg rotation - cart. axis [0,0,1]   

 cryst.   s(16) = (     0         -1          0      )    f =( -0.5000000 )
                  (     1          0          0      )       (  0.5000000 )
                  (     0          0         -1      )       (  0.5000000 )

 cart.    s(16) = (  0.0000000  1.0000000  0.0000000 )    f =( -0.5000000 )
                  ( -1.0000000  0.0000000  0.0000000 )       (  0.5000000 )
                  (  0.0000000  0.0000000 -1.0000000 )       (  0.3076884 )


     double point group D_4h(4/mmm)
     there are 14 classes and  4 irreducible representations
     the character table:

       E     -E    2C4   -2C4   C2    2C2' 2C2'' i     -i    2S4   -2S4   s_h 
                               -C2   -2C2' -2C2'                         -s_h 
G_6+   2.00 -2.00  1.41 -1.41  0.00  0.00  0.00  2.00 -2.00  1.41 -1.41  0.00
G_7+   2.00 -2.00 -1.41  1.41  0.00  0.00  0.00  2.00 -2.00 -1.41  1.41  0.00
G_6-   2.00 -2.00  1.41 -1.41  0.00  0.00  0.00 -2.00  2.00 -1.41  1.41  0.00
G_7-   2.00 -2.00 -1.41  1.41  0.00  0.00  0.00 -2.00  2.00  1.41 -1.41  0.00

        2s_v  2s_d
       -2s_v -2s_d
G_6+   0.00  0.00
G_7+   0.00  0.00
G_6-   0.00  0.00
G_7-   0.00  0.00

     the symmetry operations in each class and the name of the first element:

     E             1
          identity                                               
     -E           -1
          identity E                                             
     2C4           7    8
           90 deg rotation - cart. axis [0,0,-1]                 
     -2C4         -7   -8
           90 deg rotation - cart. axis [0,0,-1] E               
      C2  -C2      2   -2
          180 deg rotation - cart. axis [0,0,1]                  
      2C2'-2C2'    3   -3    4   -4
          180 deg rotation - cart. axis [0,1,0]                  
     2C2''-2C2'    5   -5   -6    6
          180 deg rotation - cart. axis [1,1,0]                  
     i             9
          inversion                                              
     -i           -9
          inversion E                                            
     2S4          15   16
          inv.  90 deg rotation - cart. axis [0,0,-1]            
     -2S4        -15  -16
          inv.  90 deg rotation - cart. axis [0,0,-1] E          
      s_h -s_h    10  -10
          inv. 180 deg rotation - cart. axis [0,0,1]             
      2s_v-2s_v   11  -11   12  -12
          inv. 180 deg rotation - cart. axis [0,1,0]             
      2s_d-2s_d   13  -13  -14   14
          inv. 180 deg rotation - cart. axis [1,1,0]             

   Cartesian axes

     site n.     atom                  positions (alat units)
         1           Sn  tau(   1) = (   0.0000000   0.0000000   0.0000000  )
         2           Sn  tau(   2) = (   0.5000000   0.5000000   0.3076884  )
         3           I   tau(   3) = (   0.2985210   0.2985210   0.0000000  )
         4           I   tau(   4) = (   0.7014790   0.7014790   0.0000000  )
         5           I   tau(   5) = (   0.7985210   0.2014790   0.3076884  )
         6           I   tau(   6) = (   0.2014790   0.7985210   0.3076884  )

   Crystallographic axes

     site n.     atom                  positions (cryst. coord.)
         1           Sn  tau(   1) = (  0.0000000  0.0000000  0.0000000  )
         2           Sn  tau(   2) = (  0.5000000  0.5000000  0.5000000  )
         3           I   tau(   3) = (  0.2985210  0.2985210  0.0000000  )
         4           I   tau(   4) = (  0.7014790  0.7014790  0.0000000  )
         5           I   tau(   5) = (  0.7985210  0.2014790  0.5000000  )
         6           I   tau(   6) = (  0.2014790  0.7985210  0.5000000  )

     number of k points=     6
                       cart. coord. in units 2pi/alat
        k(    1) = (   0.1250000   0.1250000   0.2031276), wk =   0.1250000
        k(    2) = (   0.1250000   0.1250000   0.6093827), wk =   0.1250000
        k(    3) = (   0.1250000   0.3750000   0.2031276), wk =   0.2500000
        k(    4) = (   0.1250000   0.3750000   0.6093827), wk =   0.2500000
        k(    5) = (   0.3750000   0.3750000   0.2031276), wk =   0.1250000
        k(    6) = (   0.3750000   0.3750000   0.6093827), wk =   0.1250000

                       cryst. coord.
        k(    1) = (   0.1250000   0.1250000   0.1250000), wk =   0.1250000
        k(    2) = (   0.1250000   0.1250000   0.3750000), wk =   0.1250000
        k(    3) = (   0.1250000   0.3750000   0.1250000), wk =   0.2500000
        k(    4) = (   0.1250000   0.3750000   0.3750000), wk =   0.2500000
        k(    5) = (   0.3750000   0.3750000   0.1250000), wk =   0.1250000
        k(    6) = (   0.3750000   0.3750000   0.3750000), wk =   0.1250000

     Dense  grid:   178307 G-vectors     FFT dimensions: (  90,  90,  54)

     Dynamical RAM for                 wfc:       1.21 MB

     Dynamical RAM for     wfc (w. buffer):       8.47 MB

     Dynamical RAM for           str. fact:       0.17 MB

     Dynamical RAM for           local pot:       0.00 MB

     Dynamical RAM for          nlocal pot:       1.32 MB

     Dynamical RAM for                qrad:       7.52 MB

     Dynamical RAM for          rho,v,vnew:       2.50 MB

     Dynamical RAM for               rhoin:       0.83 MB

     Dynamical RAM for            rho*nmix:       5.44 MB

     Dynamical RAM for           G-vectors:       0.36 MB

     Dynamical RAM for          h,s,v(r/c):       0.59 MB

     Dynamical RAM for          <psi|beta>:       0.22 MB

     Dynamical RAM for                 psi:       2.42 MB

     Dynamical RAM for                hpsi:       2.42 MB

     Dynamical RAM for                spsi:       2.42 MB

     Dynamical RAM for      wfcinit/wfcrot:       2.27 MB

     Dynamical RAM for           addusdens:      52.21 MB

     Dynamical RAM for          addusforce:      52.82 MB

     Dynamical RAM for         addusstress:      53.40 MB

     Estimated static dynamical RAM per process >      27.87 MB

     Estimated max dynamical RAM per process >      81.27 MB

     Estimated total dynamical RAM >       2.54 GB

     Initial potential from superposition of free atoms

     starting charge   55.99750, renormalised to   56.00000
     Starting wfcs are   68 randomized atomic wfcs

     total cpu time spent up to now is       32.4 secs

     Self-consistent Calculation

     iteration #  1     ecut=    80.00 Ry     beta= 0.60
     Davidson diagonalization with overlap
     ethr =  1.00E-02,  avg # of iterations =  2.0

     Threshold (ethr) on eigenvalues was too large:
     Diagonalizing with lowered threshold

     Davidson diagonalization with overlap
     ethr =  2.73E-04,  avg # of iterations =  3.0

     total cpu time spent up to now is       49.5 secs

     total energy              =    -561.61469292 Ry
     estimated scf accuracy    <       0.13918512 Ry

     iteration #  2     ecut=    80.00 Ry     beta= 0.60
     Davidson diagonalization with overlap
     ethr =  2.49E-04,  avg # of iterations =  3.3

     total cpu time spent up to now is       55.9 secs

     total energy              =    -561.66008233 Ry
     estimated scf accuracy    <       0.02808884 Ry

     iteration #  3     ecut=    80.00 Ry     beta= 0.60
     Davidson diagonalization with overlap
     ethr =  5.02E-05,  avg # of iterations =  2.0

     total cpu time spent up to now is       61.0 secs

     total energy              =    -561.66436694 Ry
     estimated scf accuracy    <       0.00129566 Ry

     iteration #  4     ecut=    80.00 Ry     beta= 0.60
     Davidson diagonalization with overlap
     ethr =  2.31E-06,  avg # of iterations =  7.2

     total cpu time spent up to now is       68.0 secs

     total energy              =    -561.66488938 Ry
     estimated scf accuracy    <       0.00073724 Ry

     iteration #  5     ecut=    80.00 Ry     beta= 0.60
     Davidson diagonalization with overlap
     ethr =  1.32E-06,  avg # of iterations =  2.0

     total cpu time spent up to now is       73.0 secs

     total energy              =    -561.66505538 Ry
     estimated scf accuracy    <       0.00000269 Ry

     iteration #  6     ecut=    80.00 Ry     beta= 0.60
     Davidson diagonalization with overlap
     ethr =  4.81E-09,  avg # of iterations =  8.0

     total cpu time spent up to now is       82.4 secs

     total energy              =    -561.66506237 Ry
     estimated scf accuracy    <       0.00000464 Ry

     iteration #  7     ecut=    80.00 Ry     beta= 0.60
     Davidson diagonalization with overlap
     ethr =  4.81E-09,  avg # of iterations =  2.0

     total cpu time spent up to now is       87.2 secs

     End of self-consistent calculation

          k = 0.1250 0.1250 0.2031 ( 22315 PWs)   bands (ev):

   -18.8633 -18.8633 -18.8625 -18.8625 -18.8581 -18.8581 -18.8580 -18.8580
   -17.8273 -17.8273 -17.8258 -17.8258 -17.8199 -17.8199 -17.8197 -17.8197
   -17.8187 -17.8187 -17.8186 -17.8186  -9.2587  -9.2587  -8.8466  -8.8466
    -8.8034  -8.8034  -8.6881  -8.6881  -3.9911  -3.9911  -2.5654  -2.5654
    -0.2984  -0.2984   0.0286   0.0286   0.3200   0.3200   0.5189   0.5189
     0.8874   0.8874   1.1809   1.1809   1.3079   1.3079   1.5455   1.5455
     2.0737   2.0737   2.2162   2.2162   2.3085   2.3085   2.9879   2.9879
     4.7856

     occupation numbers 
     1.0000   1.0000   1.0000   1.0000   1.0000   1.0000   1.0000   1.0000
     1.0000   1.0000   1.0000   1.0000   1.0000   1.0000   1.0000   1.0000
     1.0000   1.0000   1.0000   1.0000   1.0000   1.0000   1.0000   1.0000
     1.0000   1.0000   1.0000   1.0000   1.0000   1.0000   1.0000   1.0000
     1.0000   1.0000   1.0000   1.0000   1.0000   1.0000   1.0000   1.0000
     1.0000   1.0000   1.0000   1.0000   1.0000   1.0000   1.0000   1.0000
     1.0000   1.0000   1.0000   1.0000   1.0000   1.0000   1.0000   1.0000
     0.0000

          k = 0.1250 0.1250 0.6094 ( 22280 PWs)   bands (ev):

   -18.8629 -18.8629 -18.8626 -18.8626 -18.8582 -18.8582 -18.8581 -18.8581
   -17.8261 -17.8261 -17.8254 -17.8254 -17.8217 -17.8217 -17.8216 -17.8216
   -17.8175 -17.8175 -17.8174 -17.8174  -9.0039  -9.0039  -8.7841  -8.7841
    -8.7160  -8.7160  -8.7068  -8.7068  -3.8591  -3.8591  -3.2863  -3.2863
    -0.5227  -0.5227  -0.2133  -0.2133   0.0249   0.0249   0.1539   0.1539
     0.4596   0.4596   0.8594   0.8594   1.3697   1.3697   1.4472   1.4472
     1.8421   1.8421   1.9235   1.9235   2.3090   2.3090   2.8421   2.8421
     4.9736

     occupation numbers 
     1.0000   1.0000   1.0000   1.0000   1.0000   1.0000   1.0000   1.0000
     1.0000   1.0000   1.0000   1.0000   1.0000   1.0000   1.0000   1.0000
     1.0000   1.0000   1.0000   1.0000   1.0000   1.0000   1.0000   1.0000
     1.0000   1.0000   1.0000   1.0000   1.0000   1.0000   1.0000   1.0000
     1.0000   1.0000   1.0000   1.0000   1.0000   1.0000   1.0000   1.0000
     1.0000   1.0000   1.0000   1.0000   1.0000   1.0000   1.0000   1.0000
     1.0000   1.0000   1.0000   1.0000   1.0000   1.0000   1.0000   1.0000
     0.0000

          k = 0.1250 0.3750 0.2031 ( 22317 PWs)   bands (ev):

   -18.8631 -18.8631 -18.8628 -18.8628 -18.8581 -18.8581 -18.8580 -18.8580
   -17.8269 -17.8269 -17.8262 -17.8262 -17.8199 -17.8199 -17.8197 -17.8197
   -17.8187 -17.8187 -17.8186 -17.8186  -9.1555  -9.1555  -8.9890  -8.9890
    -8.7651  -8.7651  -8.7077  -8.7077  -3.6425  -3.6425  -3.0764  -3.0764
    -0.1921  -0.1921  -0.0248  -0.0248   0.5209   0.5209   0.7470   0.7470
     0.9607   0.9607   1.1806   1.1806   1.4101   1.4101   1.5021   1.5021
     1.9502   1.9502   2.1060   2.1060   2.2605   2.2605   2.5897   2.5897
     5.0343

     occupation numbers 
     1.0000   1.0000   1.0000   1.0000   1.0000   1.0000   1.0000   1.0000
     1.0000   1.0000   1.0000   1.0000   1.0000   1.0000   1.0000   1.0000
     1.0000   1.0000   1.0000   1.0000   1.0000   1.0000   1.0000   1.0000
     1.0000   1.0000   1.0000   1.0000   1.0000   1.0000   1.0000   1.0000
     1.0000   1.0000   1.0000   1.0000   1.0000   1.0000   1.0000   1.0000
     1.0000   1.0000   1.0000   1.0000   1.0000   1.0000   1.0000   1.0000
     1.0000   1.0000   1.0000   1.0000   1.0000   1.0000   1.0000   1.0000
     0.0000

          k = 0.1250 0.3750 0.6094 ( 22291 PWs)   bands (ev):

   -18.8629 -18.8629 -18.8626 -18.8626 -18.8582 -18.8582 -18.8580 -18.8580
   -17.8260 -17.8260 -17.8257 -17.8257 -17.8216 -17.8216 -17.8216 -17.8216
   -17.8174 -17.8174 -17.8174 -17.8174  -8.9437  -8.9437  -8.8535  -8.8535
    -8.7124  -8.7124  -8.7053  -8.7053  -3.7009  -3.7009  -3.4605  -3.4605
    -0.6786  -0.6786  -0.4863  -0.4863  -0.0284  -0.0284   0.1824   0.1824
     0.7973   0.7973   1.1684   1.1684   1.5057   1.5057   1.6318   1.6318
     1.8372   1.8372   1.9549   1.9549   2.3684   2.3684   2.7519   2.7519
     4.4662

     occupation numbers 
     1.0000   1.0000   1.0000   1.0000   1.0000   1.0000   1.0000   1.0000
     1.0000   1.0000   1.0000   1.0000   1.0000   1.0000   1.0000   1.0000
     1.0000   1.0000   1.0000   1.0000   1.0000   1.0000   1.0000   1.0000
     1.0000   1.0000   1.0000   1.0000   1.0000   1.0000   1.0000   1.0000
     1.0000   1.0000   1.0000   1.0000   1.0000   1.0000   1.0000   1.0000
     1.0000   1.0000   1.0000   1.0000   1.0000   1.0000   1.0000   1.0000
     1.0000   1.0000   1.0000   1.0000   1.0000   1.0000   1.0000   1.0000
     0.0000

          k = 0.3750 0.3750 0.2031 ( 22307 PWs)   bands (ev):

   -18.8630 -18.8630 -18.8629 -18.8629 -18.8581 -18.8581 -18.8581 -18.8581
   -17.8267 -17.8267 -17.8264 -17.8264 -17.8198 -17.8198 -17.8198 -17.8198
   -17.8186 -17.8186 -17.8186 -17.8186  -9.0758  -9.0758  -8.9852  -8.9852
    -8.8124  -8.8124  -8.7632  -8.7632  -3.4522  -3.4522  -3.2136  -3.2136
    -0.0994  -0.0994  -0.0355  -0.0355   0.4734   0.4734   0.7470   0.7470
     0.8129   0.8129   1.0228   1.0228   1.4770   1.4770   1.5503   1.5503
     1.9559   1.9559   2.0386   2.0386   2.3413   2.3413   2.5332   2.5332
     5.2748

     occupation numbers 
     1.0000   1.0000   1.0000   1.0000   1.0000   1.0000   1.0000   1.0000
     1.0000   1.0000   1.0000   1.0000   1.0000   1.0000   1.0000   1.0000
     1.0000   1.0000   1.0000   1.0000   1.0000   1.0000   1.0000   1.0000
     1.0000   1.0000   1.0000   1.0000   1.0000   1.0000   1.0000   1.0000
     1.0000   1.0000   1.0000   1.0000   1.0000   1.0000   1.0000   1.0000
     1.0000   1.0000   1.0000   1.0000   1.0000   1.0000   1.0000   1.0000
     1.0000   1.0000   1.0000   1.0000   1.0000   1.0000   1.0000   1.0000
     0.0000

          k = 0.3750 0.3750 0.6094 ( 22241 PWs)   bands (ev):

   -18.8628 -18.8628 -18.8627 -18.8627 -18.8582 -18.8582 -18.8581 -18.8581
   -17.8258 -17.8258 -17.8257 -17.8257 -17.8217 -17.8217 -17.8216 -17.8216
   -17.8174 -17.8174 -17.8174 -17.8174  -8.9077  -8.9077  -8.8671  -8.8671
    -8.7238  -8.7238  -8.7162  -8.7162  -3.6682  -3.6682  -3.5696  -3.5696
    -0.4252  -0.4252  -0.2466  -0.2466  -0.0691  -0.0691   0.2326   0.2326
     0.4666   0.4666   0.9669   0.9669   1.5896   1.5896   1.7000   1.7000
     1.8593   1.8593   1.9371   1.9371   2.2516   2.2516   2.4632   2.4632
     5.1267

     occupation numbers 
     1.0000   1.0000   1.0000   1.0000   1.0000   1.0000   1.0000   1.0000
     1.0000   1.0000   1.0000   1.0000   1.0000   1.0000   1.0000   1.0000
     1.0000   1.0000   1.0000   1.0000   1.0000   1.0000   1.0000   1.0000
     1.0000   1.0000   1.0000   1.0000   1.0000   1.0000   1.0000   1.0000
     1.0000   1.0000   1.0000   1.0000   1.0000   1.0000   1.0000   1.0000
     1.0000   1.0000   1.0000   1.0000   1.0000   1.0000   1.0000   1.0000
     1.0000   1.0000   1.0000   1.0000   1.0000   1.0000   1.0000   1.0000
     0.0000

     highest occupied, lowest unoccupied level (ev):     2.9879    4.4662

!    total energy              =    -561.66506210 Ry
     estimated scf accuracy    <       0.00000079 Ry

     The total energy is the sum of the following terms:
     one-electron contribution =    -209.70625898 Ry
     hartree contribution      =     130.15329055 Ry
     xc contribution           =    -262.56934529 Ry
     ewald contribution        =    -219.54274838 Ry

     convergence has been achieved in   7 iterations

     Forces acting on atoms (cartesian axes, Ry/au):

     atom    1 type  1   force =     0.00000000    0.00000000    0.00000000
     atom    2 type  1   force =     0.00000000    0.00000000   -0.00000000
     atom    3 type  2   force =    -0.00007557   -0.00007557    0.00000000
     atom    4 type  2   force =     0.00007557    0.00007557    0.00000000
     atom    5 type  2   force =    -0.00007557    0.00007557    0.00000000
     atom    6 type  2   force =     0.00007557   -0.00007557    0.00000000
     The non-local contrib.  to forces
     atom    1 type  1   force =     0.00000000    0.00000000    0.00000000
     atom    2 type  1   force =     0.00000000    0.00000000    0.00000000
     atom    3 type  2   force =     0.01440327    0.01440327    0.00000000
     atom    4 type  2   force =    -0.01440327   -0.01440327    0.00000000
     atom    5 type  2   force =     0.01440327   -0.01440327   -0.00000000
     atom    6 type  2   force =    -0.01440327    0.01440327   -0.00000000
     The ionic contribution  to forces
     atom    1 type  1   force =    -0.00000000   -0.00000000    0.00000000
     atom    2 type  1   force =     0.00000000    0.00000000   -0.00000000
     atom    3 type  2   force =    -0.90990984   -0.90990984    0.00000000
     atom    4 type  2   force =     0.90990984    0.90990984    0.00000000
     atom    5 type  2   force =    -0.90990984    0.90990984   -0.00000000
     atom    6 type  2   force =     0.90990984   -0.90990984    0.00000000
     The local contribution  to forces
     atom    1 type  1   force =    -0.00000000   -0.00000000   -0.00000000
     atom    2 type  1   force =     0.00000000    0.00000000    0.00000000
     atom    3 type  2   force =     0.89718743    0.89718743    0.00000000
     atom    4 type  2   force =    -0.89718743   -0.89718743   -0.00000000
     atom    5 type  2   force =     0.89718743   -0.89718743    0.00000000
     atom    6 type  2   force =    -0.89718743    0.89718743    0.00000000
     The core correction contribution to forces
     atom    1 type  1   force =     0.00000000    0.00000000    0.00000000
     atom    2 type  1   force =     0.00000000    0.00000000    0.00000000
     atom    3 type  2   force =    -0.00165553   -0.00165553    0.00000000
     atom    4 type  2   force =     0.00165553    0.00165553    0.00000000
     atom    5 type  2   force =    -0.00165553    0.00165553    0.00000000
     atom    6 type  2   force =     0.00165553   -0.00165553    0.00000000
     The Hubbard contrib.    to forces
     atom    1 type  1   force =     0.00000000    0.00000000    0.00000000
     atom    2 type  1   force =     0.00000000    0.00000000    0.00000000
     atom    3 type  2   force =     0.00000000    0.00000000    0.00000000
     atom    4 type  2   force =     0.00000000    0.00000000    0.00000000
     atom    5 type  2   force =     0.00000000    0.00000000    0.00000000
     atom    6 type  2   force =     0.00000000    0.00000000    0.00000000
     The SCF correction term to forces
     atom    1 type  1   force =     0.00000000    0.00000000   -0.00000000
     atom    2 type  1   force =    -0.00000000   -0.00000000    0.00000000
     atom    3 type  2   force =    -0.00010091   -0.00010091   -0.00000000
     atom    4 type  2   force =     0.00010091    0.00010091   -0.00000000
     atom    5 type  2   force =    -0.00010091    0.00010091   -0.00000000
     atom    6 type  2   force =     0.00010091   -0.00010091   -0.00000000

     Total force =     0.000214     Total SCF correction =     0.000285
     SCF correction compared to forces is large: reduce conv_thr to get better values


     Computing stress (Cartesian axis) and pressure

          total   stress  (Ry/bohr**3)                   (kbar)     P=        1.16
   0.00000766   0.00000000   0.00000000            1.13        0.00        0.00
   0.00000000   0.00000766   0.00000000            0.00        1.13        0.00
   0.00000000   0.00000000   0.00000835            0.00        0.00        1.23

     kinetic stress (kbar)   7259.35      0.00      0.00
                                0.00   7259.35      0.00
                                0.00      0.00   7233.82

     local   stress (kbar)    824.39     -0.00      0.00
                               -0.00    824.39     -0.00
                                0.00     -0.00  -3589.99

     nonloc. stress (kbar)  -2039.77      0.00      0.00
                                0.00  -2039.77      0.00
                                0.00      0.00  -2032.28

     hartree stress (kbar)   2828.56      0.00      0.00
                                0.00   2828.56     -0.00
                                0.00     -0.00   4719.39

     exc-cor stress (kbar)  14203.60      0.00      0.00
                                0.00  14203.60      0.00
                                0.00      0.00  14204.54

     corecor stress (kbar) -16394.22      0.00     -0.00
                                0.00 -16394.22     -0.00
                               -0.00      0.00 -16392.70

     ewald   stress (kbar)  -6680.77      0.00     -0.00
                                0.00  -6680.77     -0.00
                               -0.00     -0.00  -4141.56

     hubbard stress (kbar)      0.00      0.00      0.00
                                0.00      0.00      0.00
                                0.00      0.00      0.00

     DFT-D   stress (kbar)      0.00      0.00      0.00
                                0.00      0.00      0.00
                                0.00      0.00      0.00

     XDM     stress (kbar)      0.00      0.00      0.00
                                0.00      0.00      0.00
                                0.00      0.00      0.00

     dft-nl  stress (kbar)      0.00      0.00      0.00
                                0.00      0.00      0.00
                                0.00      0.00      0.00

     TS-vdW  stress (kbar)      0.00      0.00      0.00
                                0.00      0.00      0.00
                                0.00      0.00      0.00



     Writing output data file ./out/SnI2.save/
 
     init_run     :      2.76s CPU     14.12s WALL (       1 calls)
     electrons    :     40.31s CPU     55.47s WALL (       1 calls)
     forces       :      1.35s CPU      2.21s WALL (       1 calls)
     stress       :      3.89s CPU      5.45s WALL (       1 calls)

     Called by init_run:
     wfcinit      :      1.43s CPU      4.05s WALL (       1 calls)
     wfcinit:atom :      0.02s CPU      0.02s WALL (       6 calls)
     wfcinit:wfcr :      1.35s CPU      2.77s WALL (       6 calls)
     potinit      :      0.19s CPU      3.34s WALL (       1 calls)
     hinit0       :      0.58s CPU      2.11s WALL (       1 calls)

     Called by electrons:
     c_bands      :     30.54s CPU     36.88s WALL (       8 calls)
     sum_band     :      7.54s CPU      9.24s WALL (       8 calls)
     v_of_rho     :      0.31s CPU      2.35s WALL (       8 calls)
     v_h          :      0.07s CPU      0.16s WALL (       8 calls)
     v_xc         :      0.29s CPU      1.69s WALL (      10 calls)
     newd         :      2.00s CPU      3.30s WALL (       8 calls)
     mix_rho      :      0.23s CPU      1.46s WALL (       8 calls)

     Called by c_bands:
     init_us_2    :      0.25s CPU      0.26s WALL (     114 calls)
     cegterg      :     28.44s CPU     29.00s WALL (      48 calls)

     Called by sum_band:
     sum_band:wei :      0.00s CPU      0.21s WALL (       8 calls)
     sum_band:loo :      5.71s CPU      6.34s WALL (       8 calls)
     sum_band:buf :      0.13s CPU      0.14s WALL (      48 calls)
     sum_band:ini :      0.11s CPU      0.11s WALL (      48 calls)
     sum_band:cal :      0.40s CPU      0.44s WALL (      48 calls)
     sum_band:bec :      0.30s CPU      0.31s WALL (      48 calls)
     addusdens    :      1.57s CPU      1.94s WALL (       8 calls)
     addusd:skk   :      0.00s CPU      0.00s WALL (      16 calls)
     addusd:dgemm :      0.76s CPU      1.12s WALL (      16 calls)
     addusd:qvan2 :      0.77s CPU      0.77s WALL (      16 calls)

     Called by *egterg:
     cdiaghg      :      1.10s CPU      1.11s WALL (     219 calls)
     cegterg:over :      1.57s CPU      1.58s WALL (     177 calls)
     cegterg:upda :      0.93s CPU      0.94s WALL (     177 calls)
     cegterg:last :      2.04s CPU      2.05s WALL (     126 calls)
     h_psi        :     21.60s CPU     22.89s WALL (     231 calls)
     s_psi        :      1.44s CPU      1.94s WALL (     231 calls)
     g_psi        :      0.08s CPU      0.08s WALL (     177 calls)

     Called by h_psi:
     h_psi:calbec :      1.32s CPU      1.53s WALL (     231 calls)
     vloc_psi     :     18.41s CPU     19.46s WALL (     231 calls)
     add_vuspsi   :      1.52s CPU      1.53s WALL (     231 calls)

     General routines
     calbec       :      2.03s CPU      2.07s WALL (     309 calls)
     fft          :      0.71s CPU      0.74s WALL (     138 calls)
     ffts         :      0.09s CPU      0.09s WALL (      32 calls)
     fftw         :     19.69s CPU     20.13s WALL (   40552 calls)
 
     Parallel routines
     fft_scatt_xy :      2.49s CPU      2.54s WALL (   40722 calls)
     fft_scatt_yz :      7.94s CPU      8.17s WALL (   40722 calls)
 
     PWSCF        :     53.04s CPU   1m42.17s WALL

 
   This run was terminated on:  11:42:29  31Jan2021            

=------------------------------------------------------------------------------=
   JOB DONE.
=------------------------------------------------------------------------------=
