
     Program PWSCF v.6.4.1 starts on 24Jan2021 at 20:16:20 

     This program is part of the open-source Quantum ESPRESSO suite
     for quantum simulation of materials; please cite
         "P. Giannozzi et al., J. Phys.:Condens. Matter 21 395502 (2009);
         "P. Giannozzi et al., J. Phys.:Condens. Matter 29 465901 (2017);
          URL http://www.quantum-espresso.org", 
     in publications or presentations arising from this work. More details at
     http://www.quantum-espresso.org/quote

     Parallel version (MPI & OpenMP), running on      48 processor cores
     Number of MPI processes:                24
     Threads/MPI process:                     2

     MPI processes distributed on     1 nodes
     R & G space division:  proc/nbgrp/npool/nimage =      24
     Waiting for input...
     Reading input from standard input

     Current dimensions of program PWSCF are:
     Max number of different atomic species (ntypx) = 10
     Max number of k-points (npk) =  40000
     Max angular momentum in pseudopotentials (lmaxx) =  3
               file Sn.rel-pbesol-dn-kjpaw_psl.1.0.0.UPF: wavefunction(s)  5S 5P 5P 4D 4D renormalized
               file I.rel-pbesol-n-kjpaw_psl.1.0.0.UPF: wavefunction(s)  5S renormalized

     Subspace diagonalization in iterative solution of the eigenvalue problem:
     one sub-group per band group will be used
     scalapack distributed-memory algorithm (size of sub-group:  3*  3 procs)

 
     Parallelization info
     --------------------
     sticks:   dense  smooth     PW     G-vecs:    dense   smooth      PW
     Min         222     148     40                12208     6652     956
     Max         223     149     41                12211     6655     959
     Sum        5345    3569    973               293027   159699   22983
 

     Title: 
     CsIsalt                                                                    


     bravais-lattice index     =            1
     lattice parameter (alat)  =      12.6355  a.u.
     unit-cell volume          =    2017.3401 (a.u.)^3
     number of atoms/cell      =            5
     number of atomic types    =            2
     number of electrons       =        42.00
     number of Kohn-Sham states=           42
     kinetic-energy cutoff     =      70.0000  Ry
     charge density cutoff     =     420.0000  Ry
     convergence threshold     =      1.0E-06
     mixing beta               =       0.3500
     number of iterations used =            8  plain     mixing
     Exchange-correlation      = SLA PW PSX PSC ( 1  4 10  8 0 0)
     Non magnetic calculation with spin-orbit


     celldm(1)=  12.635518  celldm(2)=   0.000000  celldm(3)=   0.000000
     celldm(4)=   0.000000  celldm(5)=   0.000000  celldm(6)=   0.000000

     crystal axes: (cart. coord. in units of alat)
               a(1) = (   1.000000   0.000000   0.000000 )  
               a(2) = (   0.000000   1.000000   0.000000 )  
               a(3) = (   0.000000   0.000000   1.000000 )  

     reciprocal axes: (cart. coord. in units 2 pi/alat)
               b(1) = (  1.000000  0.000000  0.000000 )  
               b(2) = (  0.000000  1.000000  0.000000 )  
               b(3) = (  0.000000  0.000000  1.000000 )  


     PseudoPot. # 1 for Sn read from file:
     /marconi_scratch/userexternal/cmalosso/degironcoli/pseudo/Sn.rel-pbesol-dn-kjpaw_psl.1.0.0.UPF
     MD5 check sum: e69eff64f15ae39ad43ef58bacbfdf88
     Pseudo is Projector augmented-wave + core cor, Zval = 14.0
     Generated using "atomic" code by A. Dal Corso v.6.3
     Shape of augmentation charge: PSQ
     Using radial grid of 1243 points, 10 beta functions with: 
                l(1) =   0
                l(2) =   0
                l(3) =   1
                l(4) =   1
                l(5) =   1
                l(6) =   1
                l(7) =   2
                l(8) =   2
                l(9) =   2
               l(10) =   2
     Q(r) pseudized with 0 coefficients 


     PseudoPot. # 2 for I  read from file:
     /marconi_scratch/userexternal/cmalosso/degironcoli/pseudo/I.rel-pbesol-n-kjpaw_psl.1.0.0.UPF
     MD5 check sum: 4478c427bd443f303eca1937a163b991
     Pseudo is Projector augmented-wave + core cor, Zval =  7.0
     Generated using "atomic" code by A. Dal Corso v.6.3
     Shape of augmentation charge: PSQ
     Using radial grid of 1247 points, 10 beta functions with: 
                l(1) =   0
                l(2) =   0
                l(3) =   1
                l(4) =   1
                l(5) =   1
                l(6) =   1
                l(7) =   2
                l(8) =   2
                l(9) =   2
               l(10) =   2
     Q(r) pseudized with 0 coefficients 


     atomic species   valence    mass     pseudopotential
        Sn            14.00   118.70000     Sn( 1.00)
        I              7.00   126.90000     I ( 1.00)

     24 Sym. Ops. (no inversion) found


                                    s                        frac. trans.

      isym =  1     identity                                     

 cryst.   s( 1) = (     1          0          0      )
                  (     0          1          0      )
                  (     0          0          1      )

 cart.    s( 1) = (  1.0000000  0.0000000  0.0000000 )
                  (  0.0000000  1.0000000  0.0000000 )
                  (  0.0000000  0.0000000  1.0000000 )


      isym =  2     180 deg rotation - cart. axis [0,0,1]        

 cryst.   s( 2) = (    -1          0          0      )
                  (     0         -1          0      )
                  (     0          0          1      )

 cart.    s( 2) = ( -1.0000000  0.0000000  0.0000000 )
                  (  0.0000000 -1.0000000  0.0000000 )
                  (  0.0000000  0.0000000  1.0000000 )


      isym =  3     180 deg rotation - cart. axis [0,1,0]        

 cryst.   s( 3) = (    -1          0          0      )
                  (     0          1          0      )
                  (     0          0         -1      )

 cart.    s( 3) = ( -1.0000000  0.0000000  0.0000000 )
                  (  0.0000000  1.0000000  0.0000000 )
                  (  0.0000000  0.0000000 -1.0000000 )


      isym =  4     180 deg rotation - cart. axis [1,0,0]        

 cryst.   s( 4) = (     1          0          0      )
                  (     0         -1          0      )
                  (     0          0         -1      )

 cart.    s( 4) = (  1.0000000  0.0000000  0.0000000 )
                  (  0.0000000 -1.0000000  0.0000000 )
                  (  0.0000000  0.0000000 -1.0000000 )


      isym =  5     120 deg rotation - cart. axis [-1,-1,-1]     

 cryst.   s( 5) = (     0          0          1      )
                  (     1          0          0      )
                  (     0          1          0      )

 cart.    s( 5) = (  0.0000000  1.0000000  0.0000000 )
                  (  0.0000000  0.0000000  1.0000000 )
                  (  1.0000000  0.0000000  0.0000000 )


      isym =  6     120 deg rotation - cart. axis [-1,1,1]       

 cryst.   s( 6) = (     0          0         -1      )
                  (    -1          0          0      )
                  (     0          1          0      )

 cart.    s( 6) = (  0.0000000 -1.0000000  0.0000000 )
                  (  0.0000000  0.0000000  1.0000000 )
                  ( -1.0000000  0.0000000  0.0000000 )


      isym =  7     120 deg rotation - cart. axis [1,1,-1]       

 cryst.   s( 7) = (     0          0         -1      )
                  (     1          0          0      )
                  (     0         -1          0      )

 cart.    s( 7) = (  0.0000000  1.0000000  0.0000000 )
                  (  0.0000000  0.0000000 -1.0000000 )
                  ( -1.0000000  0.0000000  0.0000000 )


      isym =  8     120 deg rotation - cart. axis [1,-1,1]       

 cryst.   s( 8) = (     0          0          1      )
                  (    -1          0          0      )
                  (     0         -1          0      )

 cart.    s( 8) = (  0.0000000 -1.0000000  0.0000000 )
                  (  0.0000000  0.0000000 -1.0000000 )
                  (  1.0000000  0.0000000  0.0000000 )


      isym =  9     120 deg rotation - cart. axis [1,1,1]        

 cryst.   s( 9) = (     0          1          0      )
                  (     0          0          1      )
                  (     1          0          0      )

 cart.    s( 9) = (  0.0000000  0.0000000  1.0000000 )
                  (  1.0000000  0.0000000  0.0000000 )
                  (  0.0000000  1.0000000  0.0000000 )


      isym = 10     120 deg rotation - cart. axis [-1,1,-1]      

 cryst.   s(10) = (     0         -1          0      )
                  (     0          0         -1      )
                  (     1          0          0      )

 cart.    s(10) = (  0.0000000  0.0000000  1.0000000 )
                  ( -1.0000000  0.0000000  0.0000000 )
                  (  0.0000000 -1.0000000  0.0000000 )


      isym = 11     120 deg rotation - cart. axis [1,-1,-1]      

 cryst.   s(11) = (     0         -1          0      )
                  (     0          0          1      )
                  (    -1          0          0      )

 cart.    s(11) = (  0.0000000  0.0000000 -1.0000000 )
                  ( -1.0000000  0.0000000  0.0000000 )
                  (  0.0000000  1.0000000  0.0000000 )


      isym = 12     120 deg rotation - cart. axis [-1,-1,1]      

 cryst.   s(12) = (     0          1          0      )
                  (     0          0         -1      )
                  (    -1          0          0      )

 cart.    s(12) = (  0.0000000  0.0000000 -1.0000000 )
                  (  1.0000000  0.0000000  0.0000000 )
                  (  0.0000000 -1.0000000  0.0000000 )


      isym = 13     inv. 180 deg rotation - cart. axis [1,1,0]   

 cryst.   s(13) = (     0         -1          0      )
                  (    -1          0          0      )
                  (     0          0          1      )

 cart.    s(13) = (  0.0000000 -1.0000000  0.0000000 )
                  ( -1.0000000  0.0000000  0.0000000 )
                  (  0.0000000  0.0000000  1.0000000 )


      isym = 14     inv. 180 deg rotation - cart. axis [1,-1,0]  

 cryst.   s(14) = (     0          1          0      )
                  (     1          0          0      )
                  (     0          0          1      )

 cart.    s(14) = (  0.0000000  1.0000000  0.0000000 )
                  (  1.0000000  0.0000000  0.0000000 )
                  (  0.0000000  0.0000000  1.0000000 )


      isym = 15     inv.  90 deg rotation - cart. axis [0,0,-1]  

 cryst.   s(15) = (     0          1          0      )
                  (    -1          0          0      )
                  (     0          0         -1      )

 cart.    s(15) = (  0.0000000 -1.0000000  0.0000000 )
                  (  1.0000000  0.0000000  0.0000000 )
                  (  0.0000000  0.0000000 -1.0000000 )


      isym = 16     inv.  90 deg rotation - cart. axis [0,0,1]   

 cryst.   s(16) = (     0         -1          0      )
                  (     1          0          0      )
                  (     0          0         -1      )

 cart.    s(16) = (  0.0000000  1.0000000  0.0000000 )
                  ( -1.0000000  0.0000000  0.0000000 )
                  (  0.0000000  0.0000000 -1.0000000 )


      isym = 17     inv. 180 deg rotation - cart. axis [1,0,1]   

 cryst.   s(17) = (     0          0         -1      )
                  (     0          1          0      )
                  (    -1          0          0      )

 cart.    s(17) = (  0.0000000  0.0000000 -1.0000000 )
                  (  0.0000000  1.0000000  0.0000000 )
                  ( -1.0000000  0.0000000  0.0000000 )


      isym = 18     inv. 180 deg rotation - cart. axis [-1,0,1]  

 cryst.   s(18) = (     0          0          1      )
                  (     0          1          0      )
                  (     1          0          0      )

 cart.    s(18) = (  0.0000000  0.0000000  1.0000000 )
                  (  0.0000000  1.0000000  0.0000000 )
                  (  1.0000000  0.0000000  0.0000000 )


      isym = 19     inv.  90 deg rotation - cart. axis [0,1,0]   

 cryst.   s(19) = (     0          0          1      )
                  (     0         -1          0      )
                  (    -1          0          0      )

 cart.    s(19) = (  0.0000000  0.0000000 -1.0000000 )
                  (  0.0000000 -1.0000000  0.0000000 )
                  (  1.0000000  0.0000000  0.0000000 )


      isym = 20     inv.  90 deg rotation - cart. axis [0,-1,0]  

 cryst.   s(20) = (     0          0         -1      )
                  (     0         -1          0      )
                  (     1          0          0      )

 cart.    s(20) = (  0.0000000  0.0000000  1.0000000 )
                  (  0.0000000 -1.0000000  0.0000000 )
                  ( -1.0000000  0.0000000  0.0000000 )


      isym = 21     inv. 180 deg rotation - cart. axis [0,1,1]   

 cryst.   s(21) = (     1          0          0      )
                  (     0          0         -1      )
                  (     0         -1          0      )

 cart.    s(21) = (  1.0000000  0.0000000  0.0000000 )
                  (  0.0000000  0.0000000 -1.0000000 )
                  (  0.0000000 -1.0000000  0.0000000 )


      isym = 22     inv. 180 deg rotation - cart. axis [0,1,-1]  

 cryst.   s(22) = (     1          0          0      )
                  (     0          0          1      )
                  (     0          1          0      )

 cart.    s(22) = (  1.0000000  0.0000000  0.0000000 )
                  (  0.0000000  0.0000000  1.0000000 )
                  (  0.0000000  1.0000000  0.0000000 )


      isym = 23     inv.  90 deg rotation - cart. axis [-1,0,0]  

 cryst.   s(23) = (    -1          0          0      )
                  (     0          0          1      )
                  (     0         -1          0      )

 cart.    s(23) = ( -1.0000000  0.0000000  0.0000000 )
                  (  0.0000000  0.0000000 -1.0000000 )
                  (  0.0000000  1.0000000  0.0000000 )


      isym = 24     inv.  90 deg rotation - cart. axis [1,0,0]   

 cryst.   s(24) = (    -1          0          0      )
                  (     0          0         -1      )
                  (     0          1          0      )

 cart.    s(24) = ( -1.0000000  0.0000000  0.0000000 )
                  (  0.0000000  0.0000000  1.0000000 )
                  (  0.0000000 -1.0000000  0.0000000 )


     double point group T_d (-43m) 
     there are  8 classes and  3 irreducible representations
     the character table:

       E     -E    8C3   -8C3   3C2  6S4   -6S4  6s_d 
                               -3C2              -6s_d
G_6    2.00 -2.00  1.00 -1.00  0.00  1.41 -1.41  0.00
G_7    2.00 -2.00  1.00 -1.00  0.00 -1.41  1.41  0.00
G_8    4.00 -4.00 -1.00  1.00  0.00  0.00  0.00  0.00

     the symmetry operations in each class and the name of the first element:

     E             1
          identity                                               
     -E           -1
          identity E                                             
     8C3           5    7    8    6   12    9   10   11
          120 deg rotation - cart. axis [-1,-1,-1]               
     -8C3         -5   -7   -8   -6  -12   -9  -10  -11
          120 deg rotation - cart. axis [-1,-1,-1] E             
      3C2 -3C2     2   -2    3   -3    4   -4
          180 deg rotation - cart. axis [0,0,1]                  
     6S4          15   16   20   19   23   24
          inv.  90 deg rotation - cart. axis [0,0,-1]            
     -6S4        -15  -16  -20  -19  -23  -24
          inv.  90 deg rotation - cart. axis [0,0,-1] E          
     6s_d -6s_d   13  -13  -14   14   17  -17  -18   18   21  -21   22  -22
          inv. 180 deg rotation - cart. axis [1,1,0]             

   Cartesian axes

     site n.     atom                  positions (alat units)
         1           Sn  tau(   1) = (   0.0000000   0.0000000   0.0000000  )
         2           I   tau(   2) = (   0.2339030   0.7660970   0.7660970  )
         3           I   tau(   3) = (   0.7660970   0.2339030   0.7660970  )
         4           I   tau(   4) = (   0.7660970   0.7660970   0.2339030  )
         5           I   tau(   5) = (   0.2339030   0.2339030   0.2339030  )

   Crystallographic axes

     site n.     atom                  positions (cryst. coord.)
         1           Sn  tau(   1) = (  0.0000000  0.0000000  0.0000000  )
         2           I   tau(   2) = (  0.2339030  0.7660970  0.7660970  )
         3           I   tau(   3) = (  0.7660970  0.2339030  0.7660970  )
         4           I   tau(   4) = (  0.7660970  0.7660970  0.2339030  )
         5           I   tau(   5) = (  0.2339030  0.2339030  0.2339030  )

     number of k points=    56
                       cart. coord. in units 2pi/alat
        k(    1) = (   0.0416667   0.0416667   0.0416667), wk =   0.0046296
        k(    2) = (   0.0416667   0.0416667   0.1250000), wk =   0.0138889
        k(    3) = (   0.0416667   0.0416667   0.2083333), wk =   0.0138889
        k(    4) = (   0.0416667   0.0416667   0.2916667), wk =   0.0138889
        k(    5) = (   0.0416667   0.0416667   0.3750000), wk =   0.0138889
        k(    6) = (   0.0416667   0.0416667   0.4583333), wk =   0.0138889
        k(    7) = (   0.0416667   0.1250000   0.1250000), wk =   0.0138889
        k(    8) = (   0.0416667   0.1250000   0.2083333), wk =   0.0277778
        k(    9) = (   0.0416667   0.1250000   0.2916667), wk =   0.0277778
        k(   10) = (   0.0416667   0.1250000   0.3750000), wk =   0.0277778
        k(   11) = (   0.0416667   0.1250000   0.4583333), wk =   0.0277778
        k(   12) = (   0.0416667   0.2083333   0.2083333), wk =   0.0138889
        k(   13) = (   0.0416667   0.2083333   0.2916667), wk =   0.0277778
        k(   14) = (   0.0416667   0.2083333   0.3750000), wk =   0.0277778
        k(   15) = (   0.0416667   0.2083333   0.4583333), wk =   0.0277778
        k(   16) = (   0.0416667   0.2916667   0.2916667), wk =   0.0138889
        k(   17) = (   0.0416667   0.2916667   0.3750000), wk =   0.0277778
        k(   18) = (   0.0416667   0.2916667   0.4583333), wk =   0.0277778
        k(   19) = (   0.0416667   0.3750000   0.3750000), wk =   0.0138889
        k(   20) = (   0.0416667   0.3750000   0.4583333), wk =   0.0277778
        k(   21) = (   0.0416667   0.4583333   0.4583333), wk =   0.0138889
        k(   22) = (   0.1250000   0.1250000   0.1250000), wk =   0.0046296
        k(   23) = (   0.1250000   0.1250000   0.2083333), wk =   0.0138889
        k(   24) = (   0.1250000   0.1250000   0.2916667), wk =   0.0138889
        k(   25) = (   0.1250000   0.1250000   0.3750000), wk =   0.0138889
        k(   26) = (   0.1250000   0.1250000   0.4583333), wk =   0.0138889
        k(   27) = (   0.1250000   0.2083333   0.2083333), wk =   0.0138889
        k(   28) = (   0.1250000   0.2083333   0.2916667), wk =   0.0277778
        k(   29) = (   0.1250000   0.2083333   0.3750000), wk =   0.0277778
        k(   30) = (   0.1250000   0.2083333   0.4583333), wk =   0.0277778
        k(   31) = (   0.1250000   0.2916667   0.2916667), wk =   0.0138889
        k(   32) = (   0.1250000   0.2916667   0.3750000), wk =   0.0277778
        k(   33) = (   0.1250000   0.2916667   0.4583333), wk =   0.0277778
        k(   34) = (   0.1250000   0.3750000   0.3750000), wk =   0.0138889
        k(   35) = (   0.1250000   0.3750000   0.4583333), wk =   0.0277778
        k(   36) = (   0.1250000   0.4583333   0.4583333), wk =   0.0138889
        k(   37) = (   0.2083333   0.2083333   0.2083333), wk =   0.0046296
        k(   38) = (   0.2083333   0.2083333   0.2916667), wk =   0.0138889
        k(   39) = (   0.2083333   0.2083333   0.3750000), wk =   0.0138889
        k(   40) = (   0.2083333   0.2083333   0.4583333), wk =   0.0138889
        k(   41) = (   0.2083333   0.2916667   0.2916667), wk =   0.0138889
        k(   42) = (   0.2083333   0.2916667   0.3750000), wk =   0.0277778
        k(   43) = (   0.2083333   0.2916667   0.4583333), wk =   0.0277778
        k(   44) = (   0.2083333   0.3750000   0.3750000), wk =   0.0138889
        k(   45) = (   0.2083333   0.3750000   0.4583333), wk =   0.0277778
        k(   46) = (   0.2083333   0.4583333   0.4583333), wk =   0.0138889
        k(   47) = (   0.2916667   0.2916667   0.2916667), wk =   0.0046296
        k(   48) = (   0.2916667   0.2916667   0.3750000), wk =   0.0138889
        k(   49) = (   0.2916667   0.2916667   0.4583333), wk =   0.0138889
        k(   50) = (   0.2916667   0.3750000   0.3750000), wk =   0.0138889
        k(   51) = (   0.2916667   0.3750000   0.4583333), wk =   0.0277778
        k(   52) = (   0.2916667   0.4583333   0.4583333), wk =   0.0138889
        k(   53) = (   0.3750000   0.3750000   0.3750000), wk =   0.0046296
        k(   54) = (   0.3750000   0.3750000   0.4583333), wk =   0.0138889
        k(   55) = (   0.3750000   0.4583333   0.4583333), wk =   0.0138889
        k(   56) = (   0.4583333   0.4583333   0.4583333), wk =   0.0046296

                       cryst. coord.
        k(    1) = (   0.0416667   0.0416667   0.0416667), wk =   0.0046296
        k(    2) = (   0.0416667   0.0416667   0.1250000), wk =   0.0138889
        k(    3) = (   0.0416667   0.0416667   0.2083333), wk =   0.0138889
        k(    4) = (   0.0416667   0.0416667   0.2916667), wk =   0.0138889
        k(    5) = (   0.0416667   0.0416667   0.3750000), wk =   0.0138889
        k(    6) = (   0.0416667   0.0416667   0.4583333), wk =   0.0138889
        k(    7) = (   0.0416667   0.1250000   0.1250000), wk =   0.0138889
        k(    8) = (   0.0416667   0.1250000   0.2083333), wk =   0.0277778
        k(    9) = (   0.0416667   0.1250000   0.2916667), wk =   0.0277778
        k(   10) = (   0.0416667   0.1250000   0.3750000), wk =   0.0277778
        k(   11) = (   0.0416667   0.1250000   0.4583333), wk =   0.0277778
        k(   12) = (   0.0416667   0.2083333   0.2083333), wk =   0.0138889
        k(   13) = (   0.0416667   0.2083333   0.2916667), wk =   0.0277778
        k(   14) = (   0.0416667   0.2083333   0.3750000), wk =   0.0277778
        k(   15) = (   0.0416667   0.2083333   0.4583333), wk =   0.0277778
        k(   16) = (   0.0416667   0.2916667   0.2916667), wk =   0.0138889
        k(   17) = (   0.0416667   0.2916667   0.3750000), wk =   0.0277778
        k(   18) = (   0.0416667   0.2916667   0.4583333), wk =   0.0277778
        k(   19) = (   0.0416667   0.3750000   0.3750000), wk =   0.0138889
        k(   20) = (   0.0416667   0.3750000   0.4583333), wk =   0.0277778
        k(   21) = (   0.0416667   0.4583333   0.4583333), wk =   0.0138889
        k(   22) = (   0.1250000   0.1250000   0.1250000), wk =   0.0046296
        k(   23) = (   0.1250000   0.1250000   0.2083333), wk =   0.0138889
        k(   24) = (   0.1250000   0.1250000   0.2916667), wk =   0.0138889
        k(   25) = (   0.1250000   0.1250000   0.3750000), wk =   0.0138889
        k(   26) = (   0.1250000   0.1250000   0.4583333), wk =   0.0138889
        k(   27) = (   0.1250000   0.2083333   0.2083333), wk =   0.0138889
        k(   28) = (   0.1250000   0.2083333   0.2916667), wk =   0.0277778
        k(   29) = (   0.1250000   0.2083333   0.3750000), wk =   0.0277778
        k(   30) = (   0.1250000   0.2083333   0.4583333), wk =   0.0277778
        k(   31) = (   0.1250000   0.2916667   0.2916667), wk =   0.0138889
        k(   32) = (   0.1250000   0.2916667   0.3750000), wk =   0.0277778
        k(   33) = (   0.1250000   0.2916667   0.4583333), wk =   0.0277778
        k(   34) = (   0.1250000   0.3750000   0.3750000), wk =   0.0138889
        k(   35) = (   0.1250000   0.3750000   0.4583333), wk =   0.0277778
        k(   36) = (   0.1250000   0.4583333   0.4583333), wk =   0.0138889
        k(   37) = (   0.2083333   0.2083333   0.2083333), wk =   0.0046296
        k(   38) = (   0.2083333   0.2083333   0.2916667), wk =   0.0138889
        k(   39) = (   0.2083333   0.2083333   0.3750000), wk =   0.0138889
        k(   40) = (   0.2083333   0.2083333   0.4583333), wk =   0.0138889
        k(   41) = (   0.2083333   0.2916667   0.2916667), wk =   0.0138889
        k(   42) = (   0.2083333   0.2916667   0.3750000), wk =   0.0277778
        k(   43) = (   0.2083333   0.2916667   0.4583333), wk =   0.0277778
        k(   44) = (   0.2083333   0.3750000   0.3750000), wk =   0.0138889
        k(   45) = (   0.2083333   0.3750000   0.4583333), wk =   0.0277778
        k(   46) = (   0.2083333   0.4583333   0.4583333), wk =   0.0138889
        k(   47) = (   0.2916667   0.2916667   0.2916667), wk =   0.0046296
        k(   48) = (   0.2916667   0.2916667   0.3750000), wk =   0.0138889
        k(   49) = (   0.2916667   0.2916667   0.4583333), wk =   0.0138889
        k(   50) = (   0.2916667   0.3750000   0.3750000), wk =   0.0138889
        k(   51) = (   0.2916667   0.3750000   0.4583333), wk =   0.0277778
        k(   52) = (   0.2916667   0.4583333   0.4583333), wk =   0.0138889
        k(   53) = (   0.3750000   0.3750000   0.3750000), wk =   0.0046296
        k(   54) = (   0.3750000   0.3750000   0.4583333), wk =   0.0138889
        k(   55) = (   0.3750000   0.4583333   0.4583333), wk =   0.0138889
        k(   56) = (   0.4583333   0.4583333   0.4583333), wk =   0.0046296

     Dense  grid:   293027 G-vectors     FFT dimensions: (  90,  90,  90)

     Smooth grid:   159699 G-vectors     FFT dimensions: (  72,  72,  72)

     Dynamical RAM for                 wfc:       1.07 MB

     Dynamical RAM for     wfc (w. buffer):      60.71 MB

     Dynamical RAM for           str. fact:       0.37 MB

     Dynamical RAM for           local pot:       0.00 MB

     Dynamical RAM for          nlocal pot:       2.16 MB

     Dynamical RAM for                qrad:      17.31 MB

     Dynamical RAM for          rho,v,vnew:       5.20 MB

     Dynamical RAM for               rhoin:       1.73 MB

     Dynamical RAM for            rho*nmix:      11.92 MB

     Dynamical RAM for           G-vectors:       0.75 MB

     Dynamical RAM for          h,s,v(r/c):       0.14 MB

     Dynamical RAM for          <psi|beta>:       0.22 MB

     Dynamical RAM for                 psi:       4.26 MB

     Dynamical RAM for                hpsi:       4.26 MB

     Dynamical RAM for                spsi:       4.26 MB

     Dynamical RAM for      wfcinit/wfcrot:       1.96 MB

     Dynamical RAM for           addusdens:     114.40 MB

     Dynamical RAM for          addusforce:     116.24 MB

     Dynamical RAM for         addusstress:     117.01 MB

     Estimated static dynamical RAM per process >     102.70 MB

     Estimated max dynamical RAM per process >     219.71 MB

     Estimated total dynamical RAM >       5.15 GB

     Initial potential from superposition of free atoms

     starting charge   41.99871, renormalised to   42.00000
     Starting wfcs are   50 randomized atomic wfcs
     Checking if some PAW data can be deallocated... 
       PAW data deallocated on   19 nodes for type:  1
       PAW data deallocated on    5 nodes for type:  2

     total cpu time spent up to now is       60.2 secs

     Self-consistent Calculation

     iteration #  1     ecut=    70.00 Ry     beta= 0.35
     Davidson diagonalization with overlap
     ethr =  1.00E-02,  avg # of iterations =  1.1

     Threshold (ethr) on eigenvalues was too large:
     Diagonalizing with lowered threshold

     Davidson diagonalization with overlap
     ethr =  3.86E-04,  avg # of iterations =  2.0

     total cpu time spent up to now is      344.4 secs

     total energy              =   -1933.72947780 Ry
     Harris-Foulkes estimate   =   -1933.78587383 Ry
     estimated scf accuracy    <       0.12678809 Ry

     iteration #  2     ecut=    70.00 Ry     beta= 0.35
     Davidson diagonalization with overlap
     ethr =  3.02E-04,  avg # of iterations =  2.1

     total cpu time spent up to now is      518.5 secs

     total energy              =   -1933.74521192 Ry
     Harris-Foulkes estimate   =   -1933.75170773 Ry
     estimated scf accuracy    <       0.02245051 Ry

     iteration #  3     ecut=    70.00 Ry     beta= 0.35
     Davidson diagonalization with overlap
     ethr =  5.35E-05,  avg # of iterations =  2.0

     total cpu time spent up to now is      672.7 secs

     total energy              =   -1933.74527432 Ry
     Harris-Foulkes estimate   =   -1933.74685144 Ry
     estimated scf accuracy    <       0.00533945 Ry

     iteration #  4     ecut=    70.00 Ry     beta= 0.35
     Davidson diagonalization with overlap
     ethr =  1.27E-05,  avg # of iterations =  2.8

     total cpu time spent up to now is      867.5 secs

     total energy              =   -1933.74561608 Ry
     Harris-Foulkes estimate   =   -1933.74593544 Ry
     estimated scf accuracy    <       0.00073221 Ry

     iteration #  5     ecut=    70.00 Ry     beta= 0.35
     Davidson diagonalization with overlap
     ethr =  1.74E-06,  avg # of iterations =  3.0

     total cpu time spent up to now is     1081.9 secs

     total energy              =   -1933.74575341 Ry
     Harris-Foulkes estimate   =   -1933.74595049 Ry
     estimated scf accuracy    <       0.00046972 Ry

     iteration #  6     ecut=    70.00 Ry     beta= 0.35
     Davidson diagonalization with overlap
     ethr =  1.12E-06,  avg # of iterations =  2.0

     total cpu time spent up to now is     1258.1 secs

     total energy              =   -1933.74583045 Ry
     Harris-Foulkes estimate   =   -1933.74583148 Ry
     estimated scf accuracy    <       0.00000693 Ry

     iteration #  7     ecut=    70.00 Ry     beta= 0.35
     Davidson diagonalization with overlap
     ethr =  1.65E-08,  avg # of iterations =  4.0

     total cpu time spent up to now is     1478.5 secs

     total energy              =   -1933.74583431 Ry
     Harris-Foulkes estimate   =   -1933.74583528 Ry
     estimated scf accuracy    <       0.00000229 Ry

     iteration #  8     ecut=    70.00 Ry     beta= 0.35
     Davidson diagonalization with overlap
     ethr =  5.45E-09,  avg # of iterations =  2.0

     total cpu time spent up to now is     1636.1 secs

     total energy              =   -1933.74583422 Ry
     Harris-Foulkes estimate   =   -1933.74583483 Ry
     estimated scf accuracy    <       0.00000122 Ry

     iteration #  9     ecut=    70.00 Ry     beta= 0.35
     Davidson diagonalization with overlap
     ethr =  2.91E-09,  avg # of iterations =  3.0

     total cpu time spent up to now is     1797.4 secs

     End of self-consistent calculation

          k = 0.0417 0.0417 0.0417 ( 19954 PWs)   bands (ev):

   -21.8003 -21.8003 -21.8003 -21.8003 -20.7876 -20.7876 -20.7501 -20.7501
   -20.7501 -20.7501 -11.9294 -11.9294 -11.2088 -11.2088 -11.2005 -11.2005
   -11.1999 -11.1999  -6.3717  -6.3717  -2.6847  -2.6847  -2.6839  -2.6808
    -2.4983  -2.4983  -1.4124  -1.4124  -1.4089  -1.3915  -1.0148  -1.0148
    -0.9561  -0.9561  -0.3680  -0.3596  -0.3505  -0.3505  -0.0316  -0.0316
    -0.0123  -0.0019

     occupation numbers 
     1.0000   1.0000   1.0000   1.0000   1.0000   1.0000   1.0000   1.0000
     1.0000   1.0000   1.0000   1.0000   1.0000   1.0000   1.0000   1.0000
     1.0000   1.0000   1.0000   1.0000   1.0000   1.0000   1.0000   1.0000
     1.0000   1.0000   1.0000   1.0000   1.0000   1.0000   1.0000   1.0000
     1.0000   1.0000   1.0000   1.0000   1.0000   1.0000   1.0000   1.0000
     1.0000   1.0000

          k = 0.0417 0.0417 0.1250 ( 19938 PWs)   bands (ev):

   -21.8003 -21.8003 -21.8003 -21.8003 -20.7876 -20.7876 -20.7501 -20.7501
   -20.7501 -20.7501 -11.9228 -11.9228 -11.2145 -11.2139 -11.2040 -11.2034
   -11.1999 -11.1999  -6.3644  -6.3644  -2.7003  -2.6962  -2.6841  -2.6822
    -2.5099  -2.5040  -1.4114  -1.4067  -1.3913  -1.3631  -1.0473  -1.0301
    -0.9450  -0.9330  -0.3933  -0.3792  -0.3488  -0.3460  -0.0861  -0.0802
    -0.0219  -0.0073

     occupation numbers 
     1.0000   1.0000   1.0000   1.0000   1.0000   1.0000   1.0000   1.0000
     1.0000   1.0000   1.0000   1.0000   1.0000   1.0000   1.0000   1.0000
     1.0000   1.0000   1.0000   1.0000   1.0000   1.0000   1.0000   1.0000
     1.0000   1.0000   1.0000   1.0000   1.0000   1.0000   1.0000   1.0000
     1.0000   1.0000   1.0000   1.0000   1.0000   1.0000   1.0000   1.0000
     1.0000   1.0000

          k = 0.0417 0.0417 0.2083 ( 19930 PWs)   bands (ev):

   -21.8003 -21.8003 -21.8003 -21.8003 -20.7876 -20.7876 -20.7501 -20.7501
   -20.7501 -20.7501 -11.9111 -11.9111 -11.2294 -11.2287 -11.2049 -11.2042
   -11.1995 -11.1995  -6.3518  -6.3515  -2.7278  -2.7174  -2.6845  -2.6837
    -2.5289  -2.5134  -1.3984  -1.3972  -1.3572  -1.3271  -1.0728  -1.0398
    -0.9441  -0.9212  -0.4316  -0.4150  -0.3460  -0.3458  -0.1616  -0.1537
    -0.0433  -0.0287

     occupation numbers 
     1.0000   1.0000   1.0000   1.0000   1.0000   1.0000   1.0000   1.0000
     1.0000   1.0000   1.0000   1.0000   1.0000   1.0000   1.0000   1.0000
     1.0000   1.0000   1.0000   1.0000   1.0000   1.0000   1.0000   1.0000
     1.0000   1.0000   1.0000   1.0000   1.0000   1.0000   1.0000   1.0000
     1.0000   1.0000   1.0000   1.0000   1.0000   1.0000   1.0000   1.0000
     1.0000   1.0000

          k = 0.0417 0.0417 0.2917 ( 19935 PWs)   bands (ev):

   -21.8003 -21.8003 -21.8003 -21.8002 -20.7877 -20.7877 -20.7501 -20.7501
   -20.7501 -20.7501 -11.8969 -11.8969 -11.2484 -11.2477 -11.2048 -11.2041
   -11.1991 -11.1990  -6.3371  -6.3366  -2.7596  -2.7428  -2.6873  -2.6829
    -2.5497  -2.5237  -1.3913  -1.3785  -1.3084  -1.2881  -1.0807  -1.0385
    -0.9594  -0.9252  -0.4734  -0.4628  -0.3632  -0.3490  -0.2234  -0.2134
    -0.0751  -0.0620

     occupation numbers 
     1.0000   1.0000   1.0000   1.0000   1.0000   1.0000   1.0000   1.0000
     1.0000   1.0000   1.0000   1.0000   1.0000   1.0000   1.0000   1.0000
     1.0000   1.0000   1.0000   1.0000   1.0000   1.0000   1.0000   1.0000
     1.0000   1.0000   1.0000   1.0000   1.0000   1.0000   1.0000   1.0000
     1.0000   1.0000   1.0000   1.0000   1.0000   1.0000   1.0000   1.0000
     1.0000   1.0000

          k = 0.0417 0.0417 0.3750 ( 19962 PWs)   bands (ev):

   -21.8003 -21.8003 -21.8003 -21.8003 -20.7877 -20.7877 -20.7501 -20.7501
   -20.7501 -20.7501 -11.8839 -11.8838 -11.2656 -11.2649 -11.2045 -11.2038
   -11.1987 -11.1987  -6.3242  -6.3236  -2.7871  -2.7654  -2.6898  -2.6821
    -2.5668  -2.5322  -1.3870  -1.3675  -1.2509  -1.2430  -1.0801  -1.0394
    -0.9796  -0.9369  -0.5132  -0.5068  -0.4130  -0.3724  -0.2358  -0.2220
    -0.1145  -0.1019

     occupation numbers 
     1.0000   1.0000   1.0000   1.0000   1.0000   1.0000   1.0000   1.0000
     1.0000   1.0000   1.0000   1.0000   1.0000   1.0000   1.0000   1.0000
     1.0000   1.0000   1.0000   1.0000   1.0000   1.0000   1.0000   1.0000
     1.0000   1.0000   1.0000   1.0000   1.0000   1.0000   1.0000   1.0000
     1.0000   1.0000   1.0000   1.0000   1.0000   1.0000   1.0000   1.0000
     1.0000   1.0000

          k = 0.0417 0.0417 0.4583 ( 19986 PWs)   bands (ev):

   -21.8003 -21.8003 -21.8003 -21.8003 -20.7877 -20.7877 -20.7501 -20.7501
   -20.7501 -20.7501 -11.8760 -11.8760 -11.2759 -11.2752 -11.2044 -11.2037
   -11.1985 -11.1984  -6.3168  -6.3161  -2.8030  -2.7787  -2.6913  -2.6815
    -2.5765  -2.5370  -1.3850  -1.3649  -1.2008  -1.2006  -1.0910  -1.0624
    -0.9822  -0.9417  -0.5480  -0.5227  -0.4582  -0.3944  -0.2169  -0.1962
    -0.1567  -0.1382

     occupation numbers 
     1.0000   1.0000   1.0000   1.0000   1.0000   1.0000   1.0000   1.0000
     1.0000   1.0000   1.0000   1.0000   1.0000   1.0000   1.0000   1.0000
     1.0000   1.0000   1.0000   1.0000   1.0000   1.0000   1.0000   1.0000
     1.0000   1.0000   1.0000   1.0000   1.0000   1.0000   1.0000   1.0000
     1.0000   1.0000   1.0000   1.0000   1.0000   1.0000   1.0000   1.0000
     1.0000   1.0000

          k = 0.0417 0.1250 0.1250 ( 19924 PWs)   bands (ev):

   -21.8003 -21.8003 -21.8002 -21.8002 -20.7876 -20.7876 -20.7501 -20.7501
   -20.7501 -20.7501 -11.9165 -11.9164 -11.2171 -11.2158 -11.2086 -11.2080
   -11.2018 -11.2010  -6.3581  -6.3578  -2.7153  -2.7017  -2.6925  -2.6849
    -2.5210  -2.5062  -1.4234  -1.4142  -1.3667  -1.3246  -1.0688  -1.0294
    -0.9424  -0.9165  -0.4213  -0.3981  -0.3428  -0.3355  -0.1404  -0.1289
    -0.0242  -0.0019

     occupation numbers 
     1.0000   1.0000   1.0000   1.0000   1.0000   1.0000   1.0000   1.0000
     1.0000   1.0000   1.0000   1.0000   1.0000   1.0000   1.0000   1.0000
     1.0000   1.0000   1.0000   1.0000   1.0000   1.0000   1.0000   1.0000
     1.0000   1.0000   1.0000   1.0000   1.0000   1.0000   1.0000   1.0000
     1.0000   1.0000   1.0000   1.0000   1.0000   1.0000   1.0000   1.0000
     1.0000   1.0000

          k = 0.0417 0.1250 0.2083 ( 19944 PWs)   bands (ev):

   -21.8003 -21.8003 -21.8003 -21.8003 -20.7877 -20.7877 -20.7501 -20.7501
   -20.7501 -20.7501 -11.9051 -11.9050 -11.2296 -11.2281 -11.2110 -11.2097
   -11.2023 -11.2010  -6.3470  -6.3465  -2.7448  -2.7212  -2.6951  -2.6867
    -2.5408  -2.5097  -1.4340  -1.4127  -1.3279  -1.2774  -1.0877  -1.0207
    -0.9480  -0.9027  -0.4593  -0.4289  -0.3473  -0.3229  -0.2125  -0.1898
    -0.0408  -0.0150

     occupation numbers 
     1.0000   1.0000   1.0000   1.0000   1.0000   1.0000   1.0000   1.0000
     1.0000   1.0000   1.0000   1.0000   1.0000   1.0000   1.0000   1.0000
     1.0000   1.0000   1.0000   1.0000   1.0000   1.0000   1.0000   1.0000
     1.0000   1.0000   1.0000   1.0000   1.0000   1.0000   1.0000   1.0000
     1.0000   1.0000   1.0000   1.0000   1.0000   1.0000   1.0000   1.0000
     1.0000   1.0000

          k = 0.0417 0.1250 0.2917 ( 19938 PWs)   bands (ev):

   -21.8003 -21.8003 -21.8003 -21.8003 -20.7877 -20.7877 -20.7501 -20.7501
   -20.7501 -20.7501 -11.8912 -11.8912 -11.2476 -11.2461 -11.2108 -11.2091
   -11.2025 -11.2010  -6.3342  -6.3333  -2.7791  -2.7453  -2.6978  -2.6861
    -2.5636  -2.5142  -1.4398  -1.4108  -1.2781  -1.2302  -1.0863  -1.0064
    -0.9651  -0.9005  -0.4988  -0.4732  -0.3758  -0.3198  -0.2641  -0.2277
    -0.0709  -0.0439

     occupation numbers 
     1.0000   1.0000   1.0000   1.0000   1.0000   1.0000   1.0000   1.0000
     1.0000   1.0000   1.0000   1.0000   1.0000   1.0000   1.0000   1.0000
     1.0000   1.0000   1.0000   1.0000   1.0000   1.0000   1.0000   1.0000
     1.0000   1.0000   1.0000   1.0000   1.0000   1.0000   1.0000   1.0000
     1.0000   1.0000   1.0000   1.0000   1.0000   1.0000   1.0000   1.0000
     1.0000   1.0000

          k = 0.0417 0.1250 0.3750 ( 19956 PWs)   bands (ev):

   -21.8003 -21.8003 -21.8003 -21.8003 -20.7877 -20.7877 -20.7501 -20.7501
   -20.7501 -20.7501 -11.8786 -11.8786 -11.2641 -11.2626 -11.2101 -11.2086
   -11.2024 -11.2011  -6.3230  -6.3218  -2.8082  -2.7662  -2.7009  -2.6837
    -2.5835  -2.5184  -1.4420  -1.4133  -1.2235  -1.1852  -1.0736  -1.0006
    -0.9822  -0.9057  -0.5344  -0.5190  -0.4340  -0.3423  -0.2600  -0.2229
    -0.1097  -0.0808

     occupation numbers 
     1.0000   1.0000   1.0000   1.0000   1.0000   1.0000   1.0000   1.0000
     1.0000   1.0000   1.0000   1.0000   1.0000   1.0000   1.0000   1.0000
     1.0000   1.0000   1.0000   1.0000   1.0000   1.0000   1.0000   1.0000
     1.0000   1.0000   1.0000   1.0000   1.0000   1.0000   1.0000   1.0000
     1.0000   1.0000   1.0000   1.0000   1.0000   1.0000   1.0000   1.0000
     1.0000   1.0000

          k = 0.0417 0.1250 0.4583 ( 19965 PWs)   bands (ev):

   -21.8003 -21.8003 -21.8003 -21.8003 -20.7877 -20.7877 -20.7501 -20.7501
   -20.7501 -20.7501 -11.8711 -11.8710 -11.2739 -11.2725 -11.2095 -11.2083
   -11.2022 -11.2014  -6.3165  -6.3151  -2.8248  -2.7783  -2.7029  -2.6815
    -2.5953  -2.5210  -1.4421  -1.4172  -1.1755  -1.1544  -1.0719  -1.0211
    -0.9771  -0.9072  -0.5686  -0.5281  -0.4878  -0.3591  -0.2395  -0.1951
    -0.1504  -0.1117

     occupation numbers 
     1.0000   1.0000   1.0000   1.0000   1.0000   1.0000   1.0000   1.0000
     1.0000   1.0000   1.0000   1.0000   1.0000   1.0000   1.0000   1.0000
     1.0000   1.0000   1.0000   1.0000   1.0000   1.0000   1.0000   1.0000
     1.0000   1.0000   1.0000   1.0000   1.0000   1.0000   1.0000   1.0000
     1.0000   1.0000   1.0000   1.0000   1.0000   1.0000   1.0000   1.0000
     1.0000   1.0000

          k = 0.0417 0.2083 0.2083 ( 19942 PWs)   bands (ev):

   -21.8003 -21.8003 -21.8003 -21.8003 -20.7877 -20.7877 -20.7501 -20.7501
   -20.7501 -20.7501 -11.8943 -11.8942 -11.2328 -11.2303 -11.2205 -11.2196
   -11.2039 -11.2019  -6.3386  -6.3378  -2.7735  -2.7378  -2.7052  -2.6890
    -2.5564  -2.5094  -1.4639  -1.4309  -1.2865  -1.2206  -1.0932  -1.0042
    -0.9439  -0.8842  -0.4941  -0.4520  -0.3625  -0.2971  -0.2803  -0.2269
    -0.0483  -0.0146

     occupation numbers 
     1.0000   1.0000   1.0000   1.0000   1.0000   1.0000   1.0000   1.0000
     1.0000   1.0000   1.0000   1.0000   1.0000   1.0000   1.0000   1.0000
     1.0000   1.0000   1.0000   1.0000   1.0000   1.0000   1.0000   1.0000
     1.0000   1.0000   1.0000   1.0000   1.0000   1.0000   1.0000   1.0000
     1.0000   1.0000   1.0000   1.0000   1.0000   1.0000   1.0000   1.0000
     1.0000   1.0000

          k = 0.0417 0.2083 0.2917 ( 19942 PWs)   bands (ev):

   -21.8003 -21.8003 -21.8003 -21.8003 -20.7877 -20.7877 -20.7501 -20.7501
   -20.7501 -20.7501 -11.8812 -11.8812 -11.2462 -11.2438 -11.2225 -11.2210
   -11.2053 -11.2030  -6.3289  -6.3277  -2.8063  -2.7628  -2.7104  -2.6893
    -2.5738  -2.5114  -1.4845  -1.4514  -1.2380  -1.1684  -1.0781  -1.0073
    -0.9237  -0.8730  -0.5292  -0.4875  -0.4041  -0.3380  -0.2695  -0.2376
    -0.0709  -0.0309

     occupation numbers 
     1.0000   1.0000   1.0000   1.0000   1.0000   1.0000   1.0000   1.0000
     1.0000   1.0000   1.0000   1.0000   1.0000   1.0000   1.0000   1.0000
     1.0000   1.0000   1.0000   1.0000   1.0000   1.0000   1.0000   1.0000
     1.0000   1.0000   1.0000   1.0000   1.0000   1.0000   1.0000   1.0000
     1.0000   1.0000   1.0000   1.0000   1.0000   1.0000   1.0000   1.0000
     1.0000   1.0000

          k = 0.0417 0.2083 0.3750 ( 19950 PWs)   bands (ev):

   -21.8003 -21.8003 -21.8003 -21.8003 -20.7877 -20.7877 -20.7501 -20.7501
   -20.7501 -20.7501 -11.8693 -11.8693 -11.2609 -11.2587 -11.2213 -11.2196
   -11.2064 -11.2042  -6.3205  -6.3189  -2.8344  -2.7846  -2.7141  -2.6879
    -2.5897  -2.5139  -1.4963  -1.4707  -1.1894  -1.1285  -1.0548  -1.0162
    -0.9016  -0.8663  -0.5571  -0.5340  -0.4643  -0.3594  -0.2516  -0.2174
    -0.1047  -0.0576

     occupation numbers 
     1.0000   1.0000   1.0000   1.0000   1.0000   1.0000   1.0000   1.0000
     1.0000   1.0000   1.0000   1.0000   1.0000   1.0000   1.0000   1.0000
     1.0000   1.0000   1.0000   1.0000   1.0000   1.0000   1.0000   1.0000
     1.0000   1.0000   1.0000   1.0000   1.0000   1.0000   1.0000   1.0000
     1.0000   1.0000   1.0000   1.0000   1.0000   1.0000   1.0000   1.0000
     1.0000   1.0000

          k = 0.0417 0.2083 0.4583 ( 19950 PWs)   bands (ev):

   -21.8003 -21.8003 -21.8003 -21.8003 -20.7877 -20.7877 -20.7501 -20.7501
   -20.7501 -20.7501 -11.8622 -11.8622 -11.2699 -11.2678 -11.2199 -11.2188
   -11.2070 -11.2053  -6.3156  -6.3138  -2.8505  -2.7969  -2.7163  -2.6863
    -2.5995  -2.5154  -1.5011  -1.4830  -1.1494  -1.1160  -1.0427  -1.0149
    -0.8918  -0.8587  -0.5812  -0.5513  -0.5155  -0.3648  -0.2368  -0.1846
    -0.1423  -0.0807

     occupation numbers 
     1.0000   1.0000   1.0000   1.0000   1.0000   1.0000   1.0000   1.0000
     1.0000   1.0000   1.0000   1.0000   1.0000   1.0000   1.0000   1.0000
     1.0000   1.0000   1.0000   1.0000   1.0000   1.0000   1.0000   1.0000
     1.0000   1.0000   1.0000   1.0000   1.0000   1.0000   1.0000   1.0000
     1.0000   1.0000   1.0000   1.0000   1.0000   1.0000   1.0000   1.0000
     1.0000   1.0000

          k = 0.0417 0.2917 0.2917 ( 19964 PWs)   bands (ev):

   -21.8003 -21.8003 -21.8003 -21.8003 -20.7877 -20.7877 -20.7501 -20.7501
   -20.7501 -20.7501 -11.8691 -11.8691 -11.2475 -11.2443 -11.2334 -11.2325
   -11.2081 -11.2054  -6.3228  -6.3213  -2.8353  -2.7910  -2.7178  -2.6917
    -2.5813  -2.5140  -1.5176  -1.4912  -1.1947  -1.1190  -1.0546  -1.0205
    -0.8660  -0.8473  -0.5582  -0.5096  -0.4344  -0.4028  -0.2377  -0.2294
    -0.0825  -0.0306

     occupation numbers 
     1.0000   1.0000   1.0000   1.0000   1.0000   1.0000   1.0000   1.0000
     1.0000   1.0000   1.0000   1.0000   1.0000   1.0000   1.0000   1.0000
     1.0000   1.0000   1.0000   1.0000   1.0000   1.0000   1.0000   1.0000
     1.0000   1.0000   1.0000   1.0000   1.0000   1.0000   1.0000   1.0000
     1.0000   1.0000   1.0000   1.0000   1.0000   1.0000   1.0000   1.0000
     1.0000   1.0000

          k = 0.0417 0.2917 0.3750 ( 19949 PWs)   bands (ev):

   -21.8003 -21.8003 -21.8003 -21.8003 -20.7877 -20.7877 -20.7501 -20.7501
   -20.7501 -20.7501 -11.8582 -11.8581 -11.2569 -11.2540 -11.2347 -11.2332
   -11.2108 -11.2081  -6.3175  -6.3158  -2.8598  -2.8161  -2.7218  -2.6935
    -2.5874  -2.5178  -1.5389  -1.5228  -1.1556  -1.0970  -1.0292  -1.0166
    -0.8241  -0.8156  -0.5801  -0.5468  -0.4890  -0.4202  -0.2284  -0.1929
    -0.1041  -0.0414

     occupation numbers 
     1.0000   1.0000   1.0000   1.0000   1.0000   1.0000   1.0000   1.0000
     1.0000   1.0000   1.0000   1.0000   1.0000   1.0000   1.0000   1.0000
     1.0000   1.0000   1.0000   1.0000   1.0000   1.0000   1.0000   1.0000
     1.0000   1.0000   1.0000   1.0000   1.0000   1.0000   1.0000   1.0000
     1.0000   1.0000   1.0000   1.0000   1.0000   1.0000   1.0000   1.0000
     1.0000   1.0000

          k = 0.0417 0.2917 0.4583 ( 19952 PWs)   bands (ev):

   -21.8003 -21.8003 -21.8003 -21.8003 -20.7877 -20.7877 -20.7501 -20.7501
   -20.7501 -20.7501 -11.8516 -11.8515 -11.2644 -11.2617 -11.2329 -11.2318
   -11.2125 -11.2103  -6.3143  -6.3126  -2.8739  -2.8301  -2.7238  -2.6945
    -2.5911  -2.5202  -1.5489  -1.5406  -1.1272  -1.1016  -1.0138  -1.0021
    -0.8012  -0.7890  -0.5867  -0.5762  -0.5409  -0.4158  -0.2184  -0.1627
    -0.1285  -0.0539

     occupation numbers 
     1.0000   1.0000   1.0000   1.0000   1.0000   1.0000   1.0000   1.0000
     1.0000   1.0000   1.0000   1.0000   1.0000   1.0000   1.0000   1.0000
     1.0000   1.0000   1.0000   1.0000   1.0000   1.0000   1.0000   1.0000
     1.0000   1.0000   1.0000   1.0000   1.0000   1.0000   1.0000   1.0000
     1.0000   1.0000   1.0000   1.0000   1.0000   1.0000   1.0000   1.0000
     1.0000   1.0000

          k = 0.0417 0.3750 0.3750 ( 19957 PWs)   bands (ev):

   -21.8003 -21.8003 -21.8003 -21.8003 -20.7877 -20.7877 -20.7501 -20.7501
   -20.7501 -20.7501 -11.8481 -11.8480 -11.2549 -11.2515 -11.2442 -11.2433
   -11.2152 -11.2125  -6.3147  -6.3131  -2.8796  -2.8456  -2.7249  -2.6998
    -2.5821  -2.5252  -1.5681  -1.5611  -1.1284  -1.0952  -1.0031  -1.0009
    -0.7742  -0.7472  -0.5989  -0.5707  -0.4898  -0.4893  -0.2141  -0.1659
    -0.1031  -0.0358

     occupation numbers 
     1.0000   1.0000   1.0000   1.0000   1.0000   1.0000   1.0000   1.0000
     1.0000   1.0000   1.0000   1.0000   1.0000   1.0000   1.0000   1.0000
     1.0000   1.0000   1.0000   1.0000   1.0000   1.0000   1.0000   1.0000
     1.0000   1.0000   1.0000   1.0000   1.0000   1.0000   1.0000   1.0000
     1.0000   1.0000   1.0000   1.0000   1.0000   1.0000   1.0000   1.0000
     1.0000   1.0000

          k = 0.0417 0.3750 0.4583 ( 19954 PWs)   bands (ev):

   -21.8003 -21.8003 -21.8003 -21.8003 -20.7877 -20.7877 -20.7501 -20.7501
   -20.7501 -20.7501 -11.8420 -11.8420 -11.2585 -11.2557 -11.2442 -11.2432
   -11.2182 -11.2159  -6.3130  -6.3117  -2.8903  -2.8626  -2.7255  -2.7043
    -2.5778  -2.5309  -1.5830  -1.5812  -1.1117  -1.1011  -0.9914  -0.9852
    -0.7326  -0.7049  -0.6054  -0.5874  -0.5536  -0.4814  -0.2028  -0.1596
    -0.0943  -0.0381

     occupation numbers 
     1.0000   1.0000   1.0000   1.0000   1.0000   1.0000   1.0000   1.0000
     1.0000   1.0000   1.0000   1.0000   1.0000   1.0000   1.0000   1.0000
     1.0000   1.0000   1.0000   1.0000   1.0000   1.0000   1.0000   1.0000
     1.0000   1.0000   1.0000   1.0000   1.0000   1.0000   1.0000   1.0000
     1.0000   1.0000   1.0000   1.0000   1.0000   1.0000   1.0000   1.0000
     1.0000   1.0000

          k = 0.0417 0.4583 0.4583 ( 19962 PWs)   bands (ev):

   -21.8003 -21.8003 -21.8003 -21.8003 -20.7877 -20.7877 -20.7501 -20.7501
   -20.7501 -20.7501 -11.8363 -11.8363 -11.2554 -11.2538 -11.2487 -11.2485
   -11.2220 -11.2205  -6.3121  -6.3114  -2.8965  -2.8840  -2.7232  -2.7130
    -2.5645  -2.5430  -1.6016  -1.6012  -1.1040  -1.1024  -0.9794  -0.9756
    -0.6717  -0.6505  -0.6076  -0.6073  -0.5591  -0.5422  -0.1884  -0.1677
    -0.0635  -0.0371

     occupation numbers 
     1.0000   1.0000   1.0000   1.0000   1.0000   1.0000   1.0000   1.0000
     1.0000   1.0000   1.0000   1.0000   1.0000   1.0000   1.0000   1.0000
     1.0000   1.0000   1.0000   1.0000   1.0000   1.0000   1.0000   1.0000
     1.0000   1.0000   1.0000   1.0000   1.0000   1.0000   1.0000   1.0000
     1.0000   1.0000   1.0000   1.0000   1.0000   1.0000   1.0000   1.0000
     1.0000   1.0000

          k = 0.1250 0.1250 0.1250 ( 19927 PWs)   bands (ev):

   -21.8003 -21.8003 -21.8003 -21.8003 -20.7876 -20.7876 -20.7501 -20.7501
   -20.7501 -20.7501 -11.9103 -11.9103 -11.2184 -11.2184 -11.2095 -11.2095
   -11.2063 -11.2061  -6.3524  -6.3524  -2.7176  -2.7176  -2.7001  -2.6927
    -2.5187  -2.5187  -1.4348  -1.4348  -1.3367  -1.2879  -1.0531  -1.0531
    -0.9201  -0.9201  -0.4444  -0.4191  -0.3284  -0.3284  -0.1800  -0.1800
    -0.0234   0.0036

     occupation numbers 
     1.0000   1.0000   1.0000   1.0000   1.0000   1.0000   1.0000   1.0000
     1.0000   1.0000   1.0000   1.0000   1.0000   1.0000   1.0000   1.0000
     1.0000   1.0000   1.0000   1.0000   1.0000   1.0000   1.0000   1.0000
     1.0000   1.0000   1.0000   1.0000   1.0000   1.0000   1.0000   1.0000
     1.0000   1.0000   1.0000   1.0000   1.0000   1.0000   1.0000   1.0000
     1.0000   1.0000

          k = 0.1250 0.1250 0.2083 ( 19931 PWs)   bands (ev):

   -21.8003 -21.8003 -21.8003 -21.8003 -20.7877 -20.7877 -20.7501 -20.7501
   -20.7501 -20.7501 -11.8992 -11.8992 -11.2298 -11.2280 -11.2134 -11.2114
   -11.2071 -11.2067  -6.3430  -6.3426  -2.7500  -2.7312  -2.7034  -2.6994
    -2.5404  -2.5167  -1.4558  -1.4451  -1.2923  -1.2370  -1.0691  -1.0295
    -0.9298  -0.9009  -0.4785  -0.4482  -0.3342  -0.3155  -0.2446  -0.2250
    -0.0358  -0.0052

     occupation numbers 
     1.0000   1.0000   1.0000   1.0000   1.0000   1.0000   1.0000   1.0000
     1.0000   1.0000   1.0000   1.0000   1.0000   1.0000   1.0000   1.0000
     1.0000   1.0000   1.0000   1.0000   1.0000   1.0000   1.0000   1.0000
     1.0000   1.0000   1.0000   1.0000   1.0000   1.0000   1.0000   1.0000
     1.0000   1.0000   1.0000   1.0000   1.0000   1.0000   1.0000   1.0000
     1.0000   1.0000

          k = 0.1250 0.1250 0.2917 ( 19923 PWs)   bands (ev):

   -21.8003 -21.8003 -21.8002 -21.8002 -20.7876 -20.7876 -20.7501 -20.7501
   -20.7501 -20.7501 -11.8858 -11.8858 -11.2468 -11.2449 -11.2138 -11.2116
   -11.2068 -11.2063  -6.3320  -6.3311  -2.7863  -2.7527  -2.7059  -2.7002
    -2.5657  -2.5162  -1.4717  -1.4542  -1.2373  -1.1873  -1.0619  -1.0080
    -0.9457  -0.8930  -0.5136  -0.4898  -0.3777  -0.3202  -0.2768  -0.2363
    -0.0634  -0.0305

     occupation numbers 
     1.0000   1.0000   1.0000   1.0000   1.0000   1.0000   1.0000   1.0000
     1.0000   1.0000   1.0000   1.0000   1.0000   1.0000   1.0000   1.0000
     1.0000   1.0000   1.0000   1.0000   1.0000   1.0000   1.0000   1.0000
     1.0000   1.0000   1.0000   1.0000   1.0000   1.0000   1.0000   1.0000
     1.0000   1.0000   1.0000   1.0000   1.0000   1.0000   1.0000   1.0000
     1.0000   1.0000

          k = 0.1250 0.1250 0.3750 ( 19940 PWs)   bands (ev):

   -21.8003 -21.8003 -21.8003 -21.8003 -20.7877 -20.7877 -20.7501 -20.7501
   -20.7501 -20.7501 -11.8736 -11.8736 -11.2626 -11.2607 -11.2137 -11.2114
   -11.2064 -11.2060  -6.3225  -6.3212  -2.8165  -2.7721  -2.7114  -2.6951
    -2.5884  -2.5167  -1.4813  -1.4633  -1.1787  -1.1447  -1.0405  -1.0025
    -0.9580  -0.8935  -0.5410  -0.5389  -0.4405  -0.3424  -0.2617  -0.2184
    -0.1009  -0.0650

     occupation numbers 
     1.0000   1.0000   1.0000   1.0000   1.0000   1.0000   1.0000   1.0000
     1.0000   1.0000   1.0000   1.0000   1.0000   1.0000   1.0000   1.0000
     1.0000   1.0000   1.0000   1.0000   1.0000   1.0000   1.0000   1.0000
     1.0000   1.0000   1.0000   1.0000   1.0000   1.0000   1.0000   1.0000
     1.0000   1.0000   1.0000   1.0000   1.0000   1.0000   1.0000   1.0000
     1.0000   1.0000

          k = 0.1250 0.1250 0.4583 ( 19963 PWs)   bands (ev):

   -21.8003 -21.8003 -21.8003 -21.8003 -20.7877 -20.7877 -20.7501 -20.7501
   -20.7501 -20.7501 -11.8663 -11.8662 -11.2721 -11.2701 -11.2135 -11.2112
   -11.2062 -11.2057  -6.3170  -6.3154  -2.8334  -2.7835  -2.7147  -2.6910
    -2.6023  -2.5171  -1.4855  -1.4695  -1.1327  -1.1130  -1.0310  -1.0166
    -0.9588  -0.8933  -0.5773  -0.5453  -0.4904  -0.3536  -0.2414  -0.1889
    -0.1400  -0.0938

     occupation numbers 
     1.0000   1.0000   1.0000   1.0000   1.0000   1.0000   1.0000   1.0000
     1.0000   1.0000   1.0000   1.0000   1.0000   1.0000   1.0000   1.0000
     1.0000   1.0000   1.0000   1.0000   1.0000   1.0000   1.0000   1.0000
     1.0000   1.0000   1.0000   1.0000   1.0000   1.0000   1.0000   1.0000
     1.0000   1.0000   1.0000   1.0000   1.0000   1.0000   1.0000   1.0000
     1.0000   1.0000

          k = 0.1250 0.2083 0.2083 ( 19938 PWs)   bands (ev):

   -21.8003 -21.8003 -21.8003 -21.8003 -20.7877 -20.7877 -20.7501 -20.7501
   -20.7501 -20.7501 -11.8887 -11.8887 -11.2331 -11.2310 -11.2204 -11.2196
   -11.2099 -11.2084  -6.3361  -6.3356  -2.7716  -2.7469  -2.7168  -2.7073
    -2.5500  -2.5217  -1.4873  -1.4738  -1.2444  -1.1803  -1.0583  -1.0147
    -0.9202  -0.8894  -0.5070  -0.4714  -0.3544  -0.3227  -0.2701  -0.2441
    -0.0402  -0.0044

     occupation numbers 
     1.0000   1.0000   1.0000   1.0000   1.0000   1.0000   1.0000   1.0000
     1.0000   1.0000   1.0000   1.0000   1.0000   1.0000   1.0000   1.0000
     1.0000   1.0000   1.0000   1.0000   1.0000   1.0000   1.0000   1.0000
     1.0000   1.0000   1.0000   1.0000   1.0000   1.0000   1.0000   1.0000
     1.0000   1.0000   1.0000   1.0000   1.0000   1.0000   1.0000   1.0000
     1.0000   1.0000

          k = 0.1250 0.2083 0.2917 ( 19950 PWs)   bands (ev):

   -21.8003 -21.8003 -21.8003 -21.8003 -20.7877 -20.7877 -20.7501 -20.7501
   -20.7501 -20.7501 -11.8761 -11.8761 -11.2458 -11.2432 -11.2235 -11.2213
   -11.2108 -11.2090  -6.3283  -6.3273  -2.8042  -2.7681  -2.7226  -2.7108
    -2.5698  -2.5215  -1.5136  -1.4987  -1.1894  -1.1262  -1.0400  -1.0032
    -0.9097  -0.8765  -0.5364  -0.5038  -0.4061  -0.3609  -0.2539  -0.2319
    -0.0600  -0.0192

     occupation numbers 
     1.0000   1.0000   1.0000   1.0000   1.0000   1.0000   1.0000   1.0000
     1.0000   1.0000   1.0000   1.0000   1.0000   1.0000   1.0000   1.0000
     1.0000   1.0000   1.0000   1.0000   1.0000   1.0000   1.0000   1.0000
     1.0000   1.0000   1.0000   1.0000   1.0000   1.0000   1.0000   1.0000
     1.0000   1.0000   1.0000   1.0000   1.0000   1.0000   1.0000   1.0000
     1.0000   1.0000

          k = 0.1250 0.2083 0.3750 ( 19944 PWs)   bands (ev):

   -21.8003 -21.8003 -21.8003 -21.8003 -20.7877 -20.7877 -20.7501 -20.7501
   -20.7501 -20.7501 -11.8647 -11.8646 -11.2598 -11.2572 -11.2231 -11.2206
   -11.2113 -11.2096  -6.3216  -6.3201  -2.8328  -2.7878  -2.7279  -2.7087
    -2.5894  -2.5206  -1.5303  -1.5190  -1.1356  -1.0845  -1.0153  -1.0024
    -0.8963  -0.8679  -0.5591  -0.5470  -0.4646  -0.3756  -0.2345  -0.2047
    -0.0919  -0.0449

     occupation numbers 
     1.0000   1.0000   1.0000   1.0000   1.0000   1.0000   1.0000   1.0000
     1.0000   1.0000   1.0000   1.0000   1.0000   1.0000   1.0000   1.0000
     1.0000   1.0000   1.0000   1.0000   1.0000   1.0000   1.0000   1.0000
     1.0000   1.0000   1.0000   1.0000   1.0000   1.0000   1.0000   1.0000
     1.0000   1.0000   1.0000   1.0000   1.0000   1.0000   1.0000   1.0000
     1.0000   1.0000

          k = 0.1250 0.2083 0.4583 ( 19960 PWs)   bands (ev):

   -21.8003 -21.8003 -21.8003 -21.8003 -20.7877 -20.7877 -20.7501 -20.7501
   -20.7501 -20.7501 -11.8578 -11.8577 -11.2684 -11.2658 -11.2225 -11.2201
   -11.2115 -11.2101  -6.3177  -6.3160  -2.8491  -2.7992  -2.7316  -2.7057
    -2.6015  -2.5200  -1.5382  -1.5309  -1.0981  -1.0608  -1.0136  -0.9900
    -0.8910  -0.8613  -0.5824  -0.5627  -0.5079  -0.3774  -0.2181  -0.1733
    -0.1273  -0.0677

     occupation numbers 
     1.0000   1.0000   1.0000   1.0000   1.0000   1.0000   1.0000   1.0000
     1.0000   1.0000   1.0000   1.0000   1.0000   1.0000   1.0000   1.0000
     1.0000   1.0000   1.0000   1.0000   1.0000   1.0000   1.0000   1.0000
     1.0000   1.0000   1.0000   1.0000   1.0000   1.0000   1.0000   1.0000
     1.0000   1.0000   1.0000   1.0000   1.0000   1.0000   1.0000   1.0000
     1.0000   1.0000

          k = 0.1250 0.2917 0.2917 ( 19953 PWs)   bands (ev):

   -21.8003 -21.8003 -21.8003 -21.8003 -20.7877 -20.7877 -20.7501 -20.7501
   -20.7501 -20.7501 -11.8645 -11.8644 -11.2474 -11.2444 -11.2332 -11.2323
   -11.2133 -11.2110  -6.3241  -6.3229  -2.8296  -2.7922  -2.7332  -2.7166
    -2.5774  -2.5269  -1.5483  -1.5375  -1.1390  -1.0714  -1.0160  -1.0075
    -0.8578  -0.8568  -0.5587  -0.5208  -0.4385  -0.4175  -0.2198  -0.2142
    -0.0686  -0.0192

     occupation numbers 
     1.0000   1.0000   1.0000   1.0000   1.0000   1.0000   1.0000   1.0000
     1.0000   1.0000   1.0000   1.0000   1.0000   1.0000   1.0000   1.0000
     1.0000   1.0000   1.0000   1.0000   1.0000   1.0000   1.0000   1.0000
     1.0000   1.0000   1.0000   1.0000   1.0000   1.0000   1.0000   1.0000
     1.0000   1.0000   1.0000   1.0000   1.0000   1.0000   1.0000   1.0000
     1.0000   1.0000

          k = 0.1250 0.2917 0.3750 ( 19962 PWs)   bands (ev):

   -21.8003 -21.8003 -21.8003 -21.8003 -20.7877 -20.7877 -20.7501 -20.7501
   -20.7501 -20.7501 -11.8539 -11.8539 -11.2563 -11.2532 -11.2354 -11.2333
   -11.2155 -11.2130  -6.3204  -6.3190  -2.8535  -2.8147  -2.7392  -2.7185
    -2.5870  -2.5296  -1.5715  -1.5667  -1.0950  -1.0433  -1.0058  -0.9865
    -0.8368  -0.8125  -0.5754  -0.5505  -0.4887  -0.4315  -0.2035  -0.1777
    -0.0884  -0.0301

     occupation numbers 
     1.0000   1.0000   1.0000   1.0000   1.0000   1.0000   1.0000   1.0000
     1.0000   1.0000   1.0000   1.0000   1.0000   1.0000   1.0000   1.0000
     1.0000   1.0000   1.0000   1.0000   1.0000   1.0000   1.0000   1.0000
     1.0000   1.0000   1.0000   1.0000   1.0000   1.0000   1.0000   1.0000
     1.0000   1.0000   1.0000   1.0000   1.0000   1.0000   1.0000   1.0000
     1.0000   1.0000

          k = 0.1250 0.2917 0.4583 ( 19960 PWs)   bands (ev):

   -21.8003 -21.8003 -21.8003 -21.8003 -20.7877 -20.7877 -20.7501 -20.7501
   -20.7501 -20.7501 -11.8476 -11.8476 -11.2634 -11.2603 -11.2343 -11.2321
   -11.2168 -11.2147  -6.3183  -6.3168  -2.8676  -2.8275  -2.7428  -2.7183
    -2.5937  -2.5302  -1.5832  -1.5823  -1.0719  -1.0364  -0.9897  -0.9736
    -0.8159  -0.7906  -0.5815  -0.5756  -0.5297  -0.4268  -0.1903  -0.1482
    -0.1118  -0.0429

     occupation numbers 
     1.0000   1.0000   1.0000   1.0000   1.0000   1.0000   1.0000   1.0000
     1.0000   1.0000   1.0000   1.0000   1.0000   1.0000   1.0000   1.0000
     1.0000   1.0000   1.0000   1.0000   1.0000   1.0000   1.0000   1.0000
     1.0000   1.0000   1.0000   1.0000   1.0000   1.0000   1.0000   1.0000
     1.0000   1.0000   1.0000   1.0000   1.0000   1.0000   1.0000   1.0000
     1.0000   1.0000

          k = 0.1250 0.3750 0.3750 ( 19951 PWs)   bands (ev):

   -21.8003 -21.8003 -21.8003 -21.8003 -20.7877 -20.7877 -20.7501 -20.7501
   -20.7501 -20.7501 -11.8443 -11.8442 -11.2546 -11.2514 -11.2439 -11.2430
   -11.2194 -11.2168  -6.3194  -6.3181  -2.8719  -2.8417  -2.7439  -2.7257
    -2.5843  -2.5385  -1.6007  -1.6002  -1.0609  -1.0428  -0.9786  -0.9704
    -0.7929  -0.7468  -0.5868  -0.5627  -0.4928  -0.4916  -0.1849  -0.1473
    -0.0880  -0.0250

     occupation numbers 
     1.0000   1.0000   1.0000   1.0000   1.0000   1.0000   1.0000   1.0000
     1.0000   1.0000   1.0000   1.0000   1.0000   1.0000   1.0000   1.0000
     1.0000   1.0000   1.0000   1.0000   1.0000   1.0000   1.0000   1.0000
     1.0000   1.0000   1.0000   1.0000   1.0000   1.0000   1.0000   1.0000
     1.0000   1.0000   1.0000   1.0000   1.0000   1.0000   1.0000   1.0000
     1.0000   1.0000

          k = 0.1250 0.3750 0.4583 ( 19945 PWs)   bands (ev):

   -21.8003 -21.8003 -21.8003 -21.8003 -20.7877 -20.7877 -20.7501 -20.7501
   -20.7501 -20.7501 -11.8385 -11.8384 -11.2580 -11.2549 -11.2448 -11.2429
   -11.2219 -11.2197  -6.3187  -6.3176  -2.8826  -2.8575  -2.7461  -2.7293
    -2.5830  -2.5434  -1.6182  -1.6149  -1.0521  -1.0335  -0.9663  -0.9613
    -0.7539  -0.7104  -0.5900  -0.5741  -0.5427  -0.4851  -0.1723  -0.1372
    -0.0816  -0.0275

     occupation numbers 
     1.0000   1.0000   1.0000   1.0000   1.0000   1.0000   1.0000   1.0000
     1.0000   1.0000   1.0000   1.0000   1.0000   1.0000   1.0000   1.0000
     1.0000   1.0000   1.0000   1.0000   1.0000   1.0000   1.0000   1.0000
     1.0000   1.0000   1.0000   1.0000   1.0000   1.0000   1.0000   1.0000
     1.0000   1.0000   1.0000   1.0000   1.0000   1.0000   1.0000   1.0000
     1.0000   1.0000

          k = 0.1250 0.4583 0.4583 ( 19948 PWs)   bands (ev):

   -21.8003 -21.8003 -21.8003 -21.8003 -20.7877 -20.7877 -20.7501 -20.7501
   -20.7501 -20.7501 -11.8330 -11.8330 -11.2551 -11.2536 -11.2484 -11.2482
   -11.2253 -11.2239  -6.3188  -6.3182  -2.8889  -2.8776  -2.7451  -2.7374
    -2.5728  -2.5550  -1.6351  -1.6326  -1.0411  -1.0327  -0.9585  -0.9536
    -0.6988  -0.6689  -0.5839  -0.5801  -0.5475  -0.5357  -0.1586  -0.1414
    -0.0519  -0.0263

     occupation numbers 
     1.0000   1.0000   1.0000   1.0000   1.0000   1.0000   1.0000   1.0000
     1.0000   1.0000   1.0000   1.0000   1.0000   1.0000   1.0000   1.0000
     1.0000   1.0000   1.0000   1.0000   1.0000   1.0000   1.0000   1.0000
     1.0000   1.0000   1.0000   1.0000   1.0000   1.0000   1.0000   1.0000
     1.0000   1.0000   1.0000   1.0000   1.0000   1.0000   1.0000   1.0000
     1.0000   1.0000

          k = 0.2083 0.2083 0.2083 ( 19957 PWs)   bands (ev):

   -21.8003 -21.8003 -21.8003 -21.8003 -20.7877 -20.7877 -20.7501 -20.7501
   -20.7501 -20.7501 -11.8789 -11.8789 -11.2348 -11.2348 -11.2214 -11.2214
   -11.2171 -11.2169  -6.3317  -6.3317  -2.7712  -2.7712  -2.7331  -2.7258
    -2.5430  -2.5430  -1.5190  -1.5190  -1.1900  -1.1210  -1.0143  -1.0143
    -0.8934  -0.8934  -0.5269  -0.4924  -0.3723  -0.3723  -0.2438  -0.2438
    -0.0378   0.0011

     occupation numbers 
     1.0000   1.0000   1.0000   1.0000   1.0000   1.0000   1.0000   1.0000
     1.0000   1.0000   1.0000   1.0000   1.0000   1.0000   1.0000   1.0000
     1.0000   1.0000   1.0000   1.0000   1.0000   1.0000   1.0000   1.0000
     1.0000   1.0000   1.0000   1.0000   1.0000   1.0000   1.0000   1.0000
     1.0000   1.0000   1.0000   1.0000   1.0000   1.0000   1.0000   1.0000
     1.0000   1.0000

          k = 0.2083 0.2083 0.2917 ( 19954 PWs)   bands (ev):

   -21.8003 -21.8003 -21.8003 -21.8003 -20.7877 -20.7877 -20.7501 -20.7501
   -20.7501 -20.7501 -11.8671 -11.8671 -11.2454 -11.2428 -11.2267 -11.2237
   -11.2183 -11.2178  -6.3273  -6.3266  -2.8050  -2.7812  -2.7402  -2.7381
    -2.5677  -2.5377  -1.5532  -1.5494  -1.1308  -1.0638  -0.9932  -0.9912
    -0.8846  -0.8728  -0.5478  -0.5180  -0.4272  -0.4002  -0.2236  -0.2131
    -0.0500  -0.0070

     occupation numbers 
     1.0000   1.0000   1.0000   1.0000   1.0000   1.0000   1.0000   1.0000
     1.0000   1.0000   1.0000   1.0000   1.0000   1.0000   1.0000   1.0000
     1.0000   1.0000   1.0000   1.0000   1.0000   1.0000   1.0000   1.0000
     1.0000   1.0000   1.0000   1.0000   1.0000   1.0000   1.0000   1.0000
     1.0000   1.0000   1.0000   1.0000   1.0000   1.0000   1.0000   1.0000
     1.0000   1.0000

          k = 0.2083 0.2083 0.3750 ( 19952 PWs)   bands (ev):

   -21.8003 -21.8003 -21.8003 -21.8003 -20.7877 -20.7877 -20.7501 -20.7501
   -20.7501 -20.7501 -11.8564 -11.8563 -11.2577 -11.2546 -11.2279 -11.2244
   -11.2181 -11.2175  -6.3234  -6.3222  -2.8340  -2.7974  -2.7473  -2.7377
    -2.5891  -2.5340  -1.5749  -1.5734  -1.0784  -1.0218  -0.9836  -0.9568
    -0.8727  -0.8618  -0.5635  -0.5537  -0.4768  -0.4088  -0.1995  -0.1819
    -0.0757  -0.0267

     occupation numbers 
     1.0000   1.0000   1.0000   1.0000   1.0000   1.0000   1.0000   1.0000
     1.0000   1.0000   1.0000   1.0000   1.0000   1.0000   1.0000   1.0000
     1.0000   1.0000   1.0000   1.0000   1.0000   1.0000   1.0000   1.0000
     1.0000   1.0000   1.0000   1.0000   1.0000   1.0000   1.0000   1.0000
     1.0000   1.0000   1.0000   1.0000   1.0000   1.0000   1.0000   1.0000
     1.0000   1.0000

          k = 0.2083 0.2083 0.4583 ( 19949 PWs)   bands (ev):

   -21.8003 -21.8003 -21.8003 -21.8003 -20.7877 -20.7877 -20.7501 -20.7501
   -20.7501 -20.7501 -11.8500 -11.8499 -11.2654 -11.2623 -11.2281 -11.2244
   -11.2179 -11.2173  -6.3212  -6.3197  -2.8504  -2.8079  -2.7526  -2.7346
    -2.6014  -2.5320  -1.5868  -1.5853  -1.0538  -0.9962  -0.9655  -0.9317
    -0.8755  -0.8582  -0.5802  -0.5686  -0.5104  -0.4065  -0.1807  -0.1521
    -0.1061  -0.0461

     occupation numbers 
     1.0000   1.0000   1.0000   1.0000   1.0000   1.0000   1.0000   1.0000
     1.0000   1.0000   1.0000   1.0000   1.0000   1.0000   1.0000   1.0000
     1.0000   1.0000   1.0000   1.0000   1.0000   1.0000   1.0000   1.0000
     1.0000   1.0000   1.0000   1.0000   1.0000   1.0000   1.0000   1.0000
     1.0000   1.0000   1.0000   1.0000   1.0000   1.0000   1.0000   1.0000
     1.0000   1.0000

          k = 0.2083 0.2917 0.2917 ( 19949 PWs)   bands (ev):

   -21.8003 -21.8003 -21.8003 -21.8003 -20.7877 -20.7877 -20.7501 -20.7501
   -20.7501 -20.7501 -11.8562 -11.8562 -11.2473 -11.2451 -11.2329 -11.2321
   -11.2220 -11.2204  -6.3263  -6.3256  -2.8210  -2.7981  -2.7583  -2.7511
    -2.5746  -2.5488  -1.5896  -1.5886  -1.0722  -1.0040  -0.9813  -0.9612
    -0.8592  -0.8423  -0.5591  -0.5306  -0.4545  -0.4436  -0.1879  -0.1858
    -0.0512  -0.0038

     occupation numbers 
     1.0000   1.0000   1.0000   1.0000   1.0000   1.0000   1.0000   1.0000
     1.0000   1.0000   1.0000   1.0000   1.0000   1.0000   1.0000   1.0000
     1.0000   1.0000   1.0000   1.0000   1.0000   1.0000   1.0000   1.0000
     1.0000   1.0000   1.0000   1.0000   1.0000   1.0000   1.0000   1.0000
     1.0000   1.0000   1.0000   1.0000   1.0000   1.0000   1.0000   1.0000
     1.0000   1.0000

          k = 0.2083 0.2917 0.3750 ( 19954 PWs)   bands (ev):

   -21.8003 -21.8003 -21.8003 -21.8003 -20.7877 -20.7877 -20.7501 -20.7501
   -20.7501 -20.7501 -11.8464 -11.8464 -11.2552 -11.2518 -11.2368 -11.2338
   -11.2233 -11.2215  -6.3256  -6.3246  -2.8444  -2.8157  -2.7663  -2.7557
    -2.5890  -2.5498  -1.6167  -1.6140  -1.0286  -0.9743  -0.9627  -0.9225
    -0.8478  -0.8050  -0.5673  -0.5519  -0.4931  -0.4529  -0.1623  -0.1501
    -0.0652  -0.0119

     occupation numbers 
     1.0000   1.0000   1.0000   1.0000   1.0000   1.0000   1.0000   1.0000
     1.0000   1.0000   1.0000   1.0000   1.0000   1.0000   1.0000   1.0000
     1.0000   1.0000   1.0000   1.0000   1.0000   1.0000   1.0000   1.0000
     1.0000   1.0000   1.0000   1.0000   1.0000   1.0000   1.0000   1.0000
     1.0000   1.0000   1.0000   1.0000   1.0000   1.0000   1.0000   1.0000
     1.0000   1.0000

          k = 0.2083 0.2917 0.4583 ( 19961 PWs)   bands (ev):

   -21.8003 -21.8003 -21.8003 -21.8003 -20.7877 -20.7877 -20.7501 -20.7501
   -20.7501 -20.7501 -11.8406 -11.8406 -11.2614 -11.2578 -11.2371 -11.2335
   -11.2238 -11.2223  -6.3252  -6.3240  -2.8590  -2.8269  -2.7715  -2.7553
    -2.5984  -2.5487  -1.6317  -1.6258  -1.0205  -0.9451  -0.9373  -0.9073
    -0.8346  -0.7940  -0.5714  -0.5691  -0.5196  -0.4477  -0.1437  -0.1222
    -0.0850  -0.0233

     occupation numbers 
     1.0000   1.0000   1.0000   1.0000   1.0000   1.0000   1.0000   1.0000
     1.0000   1.0000   1.0000   1.0000   1.0000   1.0000   1.0000   1.0000
     1.0000   1.0000   1.0000   1.0000   1.0000   1.0000   1.0000   1.0000
     1.0000   1.0000   1.0000   1.0000   1.0000   1.0000   1.0000   1.0000
     1.0000   1.0000   1.0000   1.0000   1.0000   1.0000   1.0000   1.0000
     1.0000   1.0000

          k = 0.2083 0.3750 0.3750 ( 19953 PWs)   bands (ev):

   -21.8003 -21.8003 -21.8003 -21.8003 -20.7877 -20.7877 -20.7501 -20.7501
   -20.7501 -20.7501 -11.8375 -11.8375 -11.2541 -11.2512 -11.2434 -11.2426
   -11.2265 -11.2243  -6.3275  -6.3266  -2.8603  -2.8377  -2.7751  -2.7651
    -2.5905  -2.5608  -1.6459  -1.6411  -0.9826  -0.9809  -0.9254  -0.8979
    -0.8176  -0.7437  -0.5679  -0.5530  -0.4990  -0.4969  -0.1374  -0.1146
    -0.0621  -0.0060

     occupation numbers 
     1.0000   1.0000   1.0000   1.0000   1.0000   1.0000   1.0000   1.0000
     1.0000   1.0000   1.0000   1.0000   1.0000   1.0000   1.0000   1.0000
     1.0000   1.0000   1.0000   1.0000   1.0000   1.0000   1.0000   1.0000
     1.0000   1.0000   1.0000   1.0000   1.0000   1.0000   1.0000   1.0000
     1.0000   1.0000   1.0000   1.0000   1.0000   1.0000   1.0000   1.0000
     1.0000   1.0000

          k = 0.2083 0.3750 0.4583 ( 19968 PWs)   bands (ev):

   -21.8003 -21.8003 -21.8003 -21.8003 -20.7877 -20.7877 -20.7501 -20.7501
   -20.7501 -20.7501 -11.8322 -11.8322 -11.2571 -11.2535 -11.2457 -11.2428
   -11.2284 -11.2264  -6.3286  -6.3277  -2.8713  -2.8516  -2.7794  -2.7683
    -2.5932  -2.5645  -1.6606  -1.6545  -0.9879  -0.9402  -0.9128  -0.9015
    -0.7786  -0.7170  -0.5671  -0.5594  -0.5271  -0.4928  -0.1212  -0.0984
    -0.0581  -0.0079

     occupation numbers 
     1.0000   1.0000   1.0000   1.0000   1.0000   1.0000   1.0000   1.0000
     1.0000   1.0000   1.0000   1.0000   1.0000   1.0000   1.0000   1.0000
     1.0000   1.0000   1.0000   1.0000   1.0000   1.0000   1.0000   1.0000
     1.0000   1.0000   1.0000   1.0000   1.0000   1.0000   1.0000   1.0000
     1.0000   1.0000   1.0000   1.0000   1.0000   1.0000   1.0000   1.0000
     1.0000   1.0000

          k = 0.2083 0.4583 0.4583 ( 19968 PWs)   bands (ev):

   -21.8003 -21.8003 -21.8003 -21.8003 -20.7877 -20.7877 -20.7501 -20.7501
   -20.7501 -20.7501 -11.8273 -11.8273 -11.2547 -11.2533 -11.2479 -11.2477
   -11.2312 -11.2299  -6.3304  -6.3300  -2.8781  -2.8694  -2.7808  -2.7759
    -2.5876  -2.5753  -1.6735  -1.6700  -0.9626  -0.9394  -0.9097  -0.9029
    -0.7229  -0.6835  -0.5608  -0.5558  -0.5301  -0.5254  -0.1069  -0.0951
    -0.0299  -0.0058

     occupation numbers 
     1.0000   1.0000   1.0000   1.0000   1.0000   1.0000   1.0000   1.0000
     1.0000   1.0000   1.0000   1.0000   1.0000   1.0000   1.0000   1.0000
     1.0000   1.0000   1.0000   1.0000   1.0000   1.0000   1.0000   1.0000
     1.0000   1.0000   1.0000   1.0000   1.0000   1.0000   1.0000   1.0000
     1.0000   1.0000   1.0000   1.0000   1.0000   1.0000   1.0000   1.0000
     1.0000   1.0000

          k = 0.2917 0.2917 0.2917 ( 19973 PWs)   bands (ev):

   -21.8003 -21.8003 -21.8003 -21.8003 -20.7877 -20.7877 -20.7501 -20.7501
   -20.7501 -20.7501 -11.8464 -11.8464 -11.2478 -11.2478 -11.2337 -11.2337
   -11.2294 -11.2291  -6.3288  -6.3288  -2.8158  -2.8158  -2.7821  -2.7776
    -2.5730  -2.5730  -1.6271  -1.6271  -1.0071  -0.9439  -0.9439  -0.9417
    -0.8227  -0.8227  -0.5586  -0.5374  -0.4747  -0.4747  -0.1504  -0.1504
    -0.0419   0.0060

     occupation numbers 
     1.0000   1.0000   1.0000   1.0000   1.0000   1.0000   1.0000   1.0000
     1.0000   1.0000   1.0000   1.0000   1.0000   1.0000   1.0000   1.0000
     1.0000   1.0000   1.0000   1.0000   1.0000   1.0000   1.0000   1.0000
     1.0000   1.0000   1.0000   1.0000   1.0000   1.0000   1.0000   1.0000
     1.0000   1.0000   1.0000   1.0000   1.0000   1.0000   1.0000   1.0000
     1.0000   1.0000

          k = 0.2917 0.2917 0.3750 ( 19972 PWs)   bands (ev):

   -21.8003 -21.8003 -21.8003 -21.8003 -20.7877 -20.7877 -20.7501 -20.7501
   -20.7501 -20.7501 -11.8375 -11.8375 -11.2538 -11.2507 -11.2396 -11.2361
   -11.2307 -11.2301  -6.3315  -6.3309  -2.8400  -2.8240  -2.7913  -2.7904
    -2.5924  -2.5713  -1.6545  -1.6507  -0.9726  -0.9228  -0.9047  -0.8940
    -0.8091  -0.7864  -0.5571  -0.5491  -0.5016  -0.4809  -0.1164  -0.1157
    -0.0452   0.0056

     occupation numbers 
     1.0000   1.0000   1.0000   1.0000   1.0000   1.0000   1.0000   1.0000
     1.0000   1.0000   1.0000   1.0000   1.0000   1.0000   1.0000   1.0000
     1.0000   1.0000   1.0000   1.0000   1.0000   1.0000   1.0000   1.0000
     1.0000   1.0000   1.0000   1.0000   1.0000   1.0000   1.0000   1.0000
     1.0000   1.0000   1.0000   1.0000   1.0000   1.0000   1.0000   1.0000
     1.0000   1.0000

          k = 0.2917 0.2917 0.4583 ( 19963 PWs)   bands (ev):

   -21.8003 -21.8003 -21.8003 -21.8003 -20.7877 -20.7877 -20.7501 -20.7501
   -20.7501 -20.7501 -11.8323 -11.8323 -11.2587 -11.2546 -11.2416 -11.2370
   -11.2307 -11.2300  -6.3330  -6.3322  -2.8552  -2.8342  -2.7980  -2.7900
    -2.6026  -2.5700  -1.6688  -1.6616  -0.9762  -0.8842  -0.8752  -0.8519
    -0.8147  -0.7834  -0.5592  -0.5562  -0.5156  -0.4760  -0.0924  -0.0909
    -0.0569  -0.0010

     occupation numbers 
     1.0000   1.0000   1.0000   1.0000   1.0000   1.0000   1.0000   1.0000
     1.0000   1.0000   1.0000   1.0000   1.0000   1.0000   1.0000   1.0000
     1.0000   1.0000   1.0000   1.0000   1.0000   1.0000   1.0000   1.0000
     1.0000   1.0000   1.0000   1.0000   1.0000   1.0000   1.0000   1.0000
     1.0000   1.0000   1.0000   1.0000   1.0000   1.0000   1.0000   1.0000
     1.0000   1.0000

          k = 0.2917 0.3750 0.3750 ( 19965 PWs)   bands (ev):

   -21.8003 -21.8003 -21.8003 -21.8003 -20.7877 -20.7877 -20.7501 -20.7501
   -20.7501 -20.7501 -11.8296 -11.8295 -11.2535 -11.2514 -11.2430 -11.2422
   -11.2345 -11.2332  -6.3367  -6.3363  -2.8503  -2.8383  -2.8086  -2.8047
    -2.5978  -2.5846  -1.6786  -1.6748  -0.9263  -0.9169  -0.8612  -0.8511
    -0.7942  -0.7360  -0.5472  -0.5458  -0.5073  -0.5054  -0.0850  -0.0751
    -0.0346   0.0151

     occupation numbers 
     1.0000   1.0000   1.0000   1.0000   1.0000   1.0000   1.0000   1.0000
     1.0000   1.0000   1.0000   1.0000   1.0000   1.0000   1.0000   1.0000
     1.0000   1.0000   1.0000   1.0000   1.0000   1.0000   1.0000   1.0000
     1.0000   1.0000   1.0000   1.0000   1.0000   1.0000   1.0000   1.0000
     1.0000   1.0000   1.0000   1.0000   1.0000   1.0000   1.0000   1.0000
     1.0000   1.0000

          k = 0.2917 0.3750 0.4583 ( 19965 PWs)   bands (ev):

   -21.8003 -21.8003 -21.8003 -21.8003 -20.7877 -20.7877 -20.7501 -20.7501
   -20.7501 -20.7501 -11.8248 -11.8248 -11.2559 -11.2521 -11.2467 -11.2430
   -11.2356 -11.2343  -6.3397  -6.3392  -2.8622  -2.8501  -2.8144  -2.8086
    -2.6042  -2.5873  -1.6909  -1.6855  -0.9314  -0.8771  -0.8449  -0.8181
    -0.7868  -0.7180  -0.5468  -0.5425  -0.5152  -0.5046  -0.0642  -0.0529
    -0.0296   0.0158

     occupation numbers 
     1.0000   1.0000   1.0000   1.0000   1.0000   1.0000   1.0000   1.0000
     1.0000   1.0000   1.0000   1.0000   1.0000   1.0000   1.0000   1.0000
     1.0000   1.0000   1.0000   1.0000   1.0000   1.0000   1.0000   1.0000
     1.0000   1.0000   1.0000   1.0000   1.0000   1.0000   1.0000   1.0000
     1.0000   1.0000   1.0000   1.0000   1.0000   1.0000   1.0000   1.0000
     1.0000   1.0000

          k = 0.2917 0.4583 0.4583 ( 19975 PWs)   bands (ev):

   -21.8003 -21.8003 -21.8003 -21.8003 -20.7877 -20.7877 -20.7501 -20.7501
   -20.7501 -20.7501 -11.8205 -11.8204 -11.2543 -11.2532 -11.2473 -11.2471
   -11.2379 -11.2368  -6.3435  -6.3433  -2.8700  -2.8646  -2.8189  -2.8164
    -2.6037  -2.5970  -1.7002  -1.6975  -0.8971  -0.8791  -0.8340  -0.8244
    -0.7344  -0.6906  -0.5400  -0.5388  -0.5155  -0.5149  -0.0471  -0.0405
    -0.0019   0.0200

     occupation numbers 
     1.0000   1.0000   1.0000   1.0000   1.0000   1.0000   1.0000   1.0000
     1.0000   1.0000   1.0000   1.0000   1.0000   1.0000   1.0000   1.0000
     1.0000   1.0000   1.0000   1.0000   1.0000   1.0000   1.0000   1.0000
     1.0000   1.0000   1.0000   1.0000   1.0000   1.0000   1.0000   1.0000
     1.0000   1.0000   1.0000   1.0000   1.0000   1.0000   1.0000   1.0000
     1.0000   1.0000

          k = 0.3750 0.3750 0.3750 ( 19958 PWs)   bands (ev):

   -21.8003 -21.8003 -21.8003 -21.8003 -20.7877 -20.7877 -20.7501 -20.7501
   -20.7501 -20.7501 -11.8225 -11.8225 -11.2528 -11.2528 -11.2433 -11.2433
   -11.2398 -11.2397  -6.3445  -6.3445  -2.8472  -2.8472  -2.8335  -2.8316
    -2.6027  -2.6027  -1.6968  -1.6968  -0.8715  -0.8715  -0.8501  -0.8205
    -0.7291  -0.7291  -0.5415  -0.5284  -0.5127  -0.5127  -0.0391  -0.0391
    -0.0141   0.0304

     occupation numbers 
     1.0000   1.0000   1.0000   1.0000   1.0000   1.0000   1.0000   1.0000
     1.0000   1.0000   1.0000   1.0000   1.0000   1.0000   1.0000   1.0000
     1.0000   1.0000   1.0000   1.0000   1.0000   1.0000   1.0000   1.0000
     1.0000   1.0000   1.0000   1.0000   1.0000   1.0000   1.0000   1.0000
     1.0000   1.0000   1.0000   1.0000   1.0000   1.0000   1.0000   1.0000
     1.0000   1.0000

          k = 0.3750 0.3750 0.4583 ( 19960 PWs)   bands (ev):

   -21.8003 -21.8003 -21.8003 -21.8003 -20.7877 -20.7877 -20.7501 -20.7501
   -20.7501 -20.7501 -11.8183 -11.8183 -11.2548 -11.2522 -11.2472 -11.2443
   -11.2410 -11.2405  -6.3493  -6.3490  -2.8602  -2.8555  -2.8400  -2.8388
    -2.6119  -2.6047  -1.7072  -1.7043  -0.8765  -0.8293  -0.8094  -0.8029
    -0.7342  -0.7076  -0.5341  -0.5232  -0.5151  -0.5085  -0.0179  -0.0101
    -0.0042   0.0355

     occupation numbers 
     1.0000   1.0000   1.0000   1.0000   1.0000   1.0000   1.0000   1.0000
     1.0000   1.0000   1.0000   1.0000   1.0000   1.0000   1.0000   1.0000
     1.0000   1.0000   1.0000   1.0000   1.0000   1.0000   1.0000   1.0000
     1.0000   1.0000   1.0000   1.0000   1.0000   1.0000   1.0000   1.0000
     1.0000   1.0000   1.0000   1.0000   1.0000   1.0000   1.0000   1.0000
     1.0000   1.0000

          k = 0.3750 0.4583 0.4583 ( 19969 PWs)   bands (ev):

   -21.8003 -21.8003 -21.8003 -21.8003 -20.7877 -20.7877 -20.7501 -20.7501
   -20.7501 -20.7501 -11.8144 -11.8144 -11.2542 -11.2536 -11.2467 -11.2466
   -11.2433 -11.2427  -6.3547  -6.3547  -2.8671  -2.8650  -2.8497  -2.8488
    -2.6157  -2.6133  -1.7136  -1.7124  -0.8361  -0.8246  -0.7879  -0.7822
    -0.7189  -0.6938  -0.5264  -0.5205  -0.5081  -0.5047   0.0058   0.0075
     0.0239   0.0430

     occupation numbers 
     1.0000   1.0000   1.0000   1.0000   1.0000   1.0000   1.0000   1.0000
     1.0000   1.0000   1.0000   1.0000   1.0000   1.0000   1.0000   1.0000
     1.0000   1.0000   1.0000   1.0000   1.0000   1.0000   1.0000   1.0000
     1.0000   1.0000   1.0000   1.0000   1.0000   1.0000   1.0000   1.0000
     1.0000   1.0000   1.0000   1.0000   1.0000   1.0000   1.0000   1.0000
     1.0000   1.0000

          k = 0.4583 0.4583 0.4583 ( 19922 PWs)   bands (ev):

   -21.8003 -21.8003 -21.8002 -21.8002 -20.7877 -20.7877 -20.7501 -20.7501
   -20.7501 -20.7501 -11.8108 -11.8108 -11.2545 -11.2545 -11.2465 -11.2465
   -11.2458 -11.2457  -6.3611  -6.3611  -2.8677  -2.8677  -2.8664  -2.8659
    -2.6215  -2.6215  -1.7182  -1.7182  -0.7870  -0.7870  -0.7738  -0.7708
    -0.7048  -0.7048  -0.5144  -0.5056  -0.5056  -0.4996   0.0353   0.0396
     0.0396   0.0536

     occupation numbers 
     1.0000   1.0000   1.0000   1.0000   1.0000   1.0000   1.0000   1.0000
     1.0000   1.0000   1.0000   1.0000   1.0000   1.0000   1.0000   1.0000
     1.0000   1.0000   1.0000   1.0000   1.0000   1.0000   1.0000   1.0000
     1.0000   1.0000   1.0000   1.0000   1.0000   1.0000   1.0000   1.0000
     1.0000   1.0000   1.0000   1.0000   1.0000   1.0000   1.0000   1.0000
     1.0000   1.0000

     highest occupied level (ev):     0.0536

!    total energy              =   -1933.74583450 Ry
     Harris-Foulkes estimate   =   -1933.74583461 Ry
     estimated scf accuracy    <       0.00000013 Ry

     total all-electron energy =    -69281.863099 Ry

     The total energy is the sum of the following terms:

     one-electron contribution =    -155.34129116 Ry
     hartree contribution      =      94.82805541 Ry
     xc contribution           =    -110.25323992 Ry
     ewald contribution        =    -119.43299744 Ry
     one-center paw contrib.   =   -1643.54636139 Ry
      -> PAW hartree energy AE =     109.93099235 Ry
      -> PAW hartree energy PS =    -109.18112831 Ry
      -> PAW xc energy AE      =    -324.42055165 Ry
      -> PAW xc energy PS      =      46.78672282 Ry
      -> total E_H with PAW    =      95.57791946 Ry
      -> total E_XC with PAW   =    -387.88706874 Ry

     convergence has been achieved in   9 iterations

     Forces acting on atoms (cartesian axes, Ry/au):

     atom    1 type  1   force =     0.00000000   -0.00000000    0.00000000
     atom    2 type  2   force =    -0.00379223    0.00379223    0.00379223
     atom    3 type  2   force =     0.00379223   -0.00379223    0.00379223
     atom    4 type  2   force =     0.00379223    0.00379223   -0.00379223
     atom    5 type  2   force =    -0.00379223   -0.00379223   -0.00379223
     The non-local contrib.  to forces
     atom    1 type  1   force =     0.00000000    0.00000000    0.00000000
     atom    2 type  2   force =    -0.08594591    0.08594591    0.08594591
     atom    3 type  2   force =     0.08594591   -0.08594591    0.08594591
     atom    4 type  2   force =     0.08594591    0.08594591   -0.08594591
     atom    5 type  2   force =    -0.08594591   -0.08594591   -0.08594591
     The ionic contribution  to forces
     atom    1 type  1   force =     0.00000000    0.00000000   -0.00000000
     atom    2 type  2   force =     3.79412126   -3.79412126   -3.79412126
     atom    3 type  2   force =    -3.79412126    3.79412126   -3.79412126
     atom    4 type  2   force =    -3.79412126   -3.79412126    3.79412126
     atom    5 type  2   force =     3.79412126    3.79412126    3.79412126
     The local contribution  to forces
     atom    1 type  1   force =     0.00000000    0.00000000   -0.00000000
     atom    2 type  2   force =    -3.71970863    3.71970863    3.71970863
     atom    3 type  2   force =     3.71970863   -3.71970863    3.71970863
     atom    4 type  2   force =     3.71970863    3.71970863   -3.71970863
     atom    5 type  2   force =    -3.71970863   -3.71970863   -3.71970863
     The core correction contribution to forces
     atom    1 type  1   force =     0.00000000    0.00000000   -0.00000000
     atom    2 type  2   force =     0.00751508   -0.00751508   -0.00751508
     atom    3 type  2   force =    -0.00751508    0.00751508   -0.00751508
     atom    4 type  2   force =    -0.00751508   -0.00751508    0.00751508
     atom    5 type  2   force =     0.00751508    0.00751508    0.00751508
     The Hubbard contrib.    to forces
     atom    1 type  1   force =     0.00000000    0.00000000    0.00000000
     atom    2 type  2   force =     0.00000000    0.00000000    0.00000000
     atom    3 type  2   force =     0.00000000    0.00000000    0.00000000
     atom    4 type  2   force =     0.00000000    0.00000000    0.00000000
     atom    5 type  2   force =     0.00000000    0.00000000    0.00000000
     The SCF correction term to forces
     atom    1 type  1   force =    -0.00000000   -0.00000000    0.00000000
     atom    2 type  2   force =     0.00022597   -0.00022597   -0.00022597
     atom    3 type  2   force =    -0.00022597    0.00022597   -0.00022597
     atom    4 type  2   force =    -0.00022597   -0.00022597    0.00022597
     atom    5 type  2   force =     0.00022597    0.00022597    0.00022597

     Total force =     0.013137     Total SCF correction =     0.000783


     Computing stress (Cartesian axis) and pressure

     Message from routine stres:
     noncollinear stress + GGA not implemented

     Writing output data file CsIsalt.save/
 
     init_run     :     31.98s CPU     54.11s WALL (       1 calls)
     electrons    :   1032.62s CPU   1737.23s WALL (       1 calls)
     forces       :      6.65s CPU      9.23s WALL (       1 calls)

     Called by init_run:
     wfcinit      :     30.16s CPU     51.62s WALL (       1 calls)
     wfcinit:atom :      0.06s CPU      0.06s WALL (      56 calls)
     wfcinit:wfcr :     29.75s CPU     51.04s WALL (      56 calls)
     potinit      :      0.32s CPU      0.49s WALL (       1 calls)
     hinit0       :      0.67s CPU      0.88s WALL (       1 calls)

     Called by electrons:
     c_bands      :    824.78s CPU   1396.80s WALL (      10 calls)
     sum_band     :    195.86s CPU    322.68s WALL (      10 calls)
     v_of_rho     :      1.77s CPU      2.65s WALL (      10 calls)
     v_h          :      0.09s CPU      0.16s WALL (      10 calls)
     v_xc         :      1.72s CPU      2.56s WALL (      11 calls)
     newd         :      4.97s CPU      6.92s WALL (      10 calls)
     PAW_pot      :      2.27s CPU      3.10s WALL (      10 calls)
     mix_rho      :      2.01s CPU      3.75s WALL (      10 calls)

     Called by c_bands:
     init_us_2    :      2.46s CPU      3.63s WALL (    1232 calls)
     cegterg      :    792.37s CPU   1358.32s WALL (     560 calls)

     Called by sum_band:
     sum_band:bec :      5.79s CPU      7.61s WALL (     560 calls)
     addusdens    :      3.60s CPU      4.76s WALL (      10 calls)

     Called by *egterg:
     h_psi        :    568.30s CPU   1043.67s WALL (    1956 calls)
     s_psi        :      6.86s CPU      8.26s WALL (    1956 calls)
     g_psi        :      0.57s CPU      0.59s WALL (    1340 calls)
     cdiaghg      :     34.68s CPU     53.42s WALL (    1844 calls)
     cegterg:over :     74.02s CPU    101.11s WALL (    1340 calls)
     cegterg:upda :     67.02s CPU     97.69s WALL (    1340 calls)
     cegterg:last :     22.58s CPU     32.54s WALL (     560 calls)
     cdiaghg:chol :      3.23s CPU      5.37s WALL (    1844 calls)
     cdiaghg:inve :      1.96s CPU      2.82s WALL (    1844 calls)
     cdiaghg:para :      7.34s CPU     11.07s WALL (    3688 calls)

     Called by h_psi:
     h_psi:pot    :    566.90s CPU   1042.06s WALL (    1956 calls)
     h_psi:calbec :     12.37s CPU     15.96s WALL (    1956 calls)
     vloc_psi     :    547.32s CPU   1017.18s WALL (    1956 calls)
     add_vuspsi   :      7.20s CPU      8.90s WALL (    1956 calls)

     General routines
     calbec       :     20.99s CPU     27.81s WALL (    2740 calls)
     fft          :      3.80s CPU      6.75s WALL (     221 calls)
     ffts         :      0.91s CPU      1.81s WALL (      80 calls)
     fftw         :    709.71s CPU   1297.41s WALL (  303836 calls)
     interpolate  :      0.88s CPU      1.38s WALL (      40 calls)
 
     Parallel routines
     fft_scatt_xy :     18.81s CPU     21.39s WALL (  304137 calls)
     fft_scatt_yz :    615.71s CPU   1188.04s WALL (  304137 calls)

     PAW routines
     PAW_pot      :      2.27s CPU      3.10s WALL (      10 calls)
     PAW_symme    :      0.06s CPU      0.08s WALL (      20 calls)
 
     PWSCF        :  18m 2.45s CPU  30m19.17s WALL

 
   This run was terminated on:  20:46:39  24Jan2021            

=------------------------------------------------------------------------------=
   JOB DONE.
=------------------------------------------------------------------------------=
