
     Program PWSCF v.6.7MaX starts on 31Jan2021 at 10:26:33 

     This program is part of the open-source Quantum ESPRESSO suite
     for quantum simulation of materials; please cite
         "P. Giannozzi et al., J. Phys.:Condens. Matter 21 395502 (2009);
         "P. Giannozzi et al., J. Phys.:Condens. Matter 29 465901 (2017);
          URL http://www.quantum-espresso.org", 
     in publications or presentations arising from this work. More details at
     http://www.quantum-espresso.org/quote

     Parallel version (MPI & OpenMP), running on      96 processor cores
     Number of MPI processes:                48
     Threads/MPI process:                     2

     MPI processes distributed on     2 nodes
     R & G space division:  proc/nbgrp/npool/nimage =      48
     Waiting for input...
     Reading input from standard input

     Current dimensions of program PWSCF are:
     Max number of different atomic species (ntypx) = 10
     Max number of k-points (npk) =  40000
     Max angular momentum in pseudopotentials (lmaxx) =  3
     file Sn.rel-pbesol-dn-rrkjus_psl.1.0.0.UPF: wavefunction(s)  5S 4D 4D renormalized
     file I.rel-pbesol-n-rrkjus_psl.1.0.0.UPF: wavefunction(s)  5S renormalized

     Subspace diagonalization in iterative solution of the eigenvalue problem:
     a serial algorithm will be used


     Parallelization info
     --------------------
     sticks:   dense  smooth     PW     G-vecs:    dense   smooth      PW
     Min          69      54     15                 2985     2126     307
     Max          70      55     16                 2991     2133     310
     Sum        3313    2637    733               143473   102255   14795


     Title: 
     SnI2                                                                       


     bravais-lattice index     =            1
     lattice parameter (alat)  =      14.4199  a.u.
     unit-cell volume          =    2998.4083 (a.u.)^3
     number of atoms/cell      =            6
     number of atomic types    =            2
     number of electrons       =        56.00
     number of Kohn-Sham states=           56
     kinetic-energy cutoff     =      40.0000  Ry
     charge density cutoff     =     200.0000  Ry
     scf convergence threshold =      1.0E-06
     mixing beta               =       0.3500
     number of iterations used =            8  plain     mixing
     Exchange-correlation= PBESOL
                           (   1   4  10   8   0   0   0)
     Non magnetic calculation with spin-orbit


     celldm(1)=  14.419944  celldm(2)=   0.000000  celldm(3)=   0.000000
     celldm(4)=   0.000000  celldm(5)=   0.000000  celldm(6)=   0.000000

     crystal axes: (cart. coord. in units of alat)
               a(1) = (   1.000000   0.000000   0.000000 )  
               a(2) = (   0.000000   1.000000   0.000000 )  
               a(3) = (   0.000000   0.000000   1.000000 )  

     reciprocal axes: (cart. coord. in units 2 pi/alat)
               b(1) = (  1.000000  0.000000  0.000000 )  
               b(2) = (  0.000000  1.000000  0.000000 )  
               b(3) = (  0.000000  0.000000  1.000000 )  


     PseudoPot. # 1 for Sn read from file:
     /scratch/cmalosso/degironcoli/pseudo/pseudo-usp/Sn.rel-pbesol-dn-rrkjus_psl.1.0.0.UPF
     MD5 check sum: c1cf6ea56b96a3656bdf0d1db379e093
     Pseudo is Ultrasoft + core correction, Zval = 14.0
     Generated using &quot;atomic&quot; code by A. Dal Corso  v.6.3
     Using radial grid of 1243 points, 10 beta functions with: 
                l(1) =   0
                l(2) =   0
                l(3) =   1
                l(4) =   1
                l(5) =   1
                l(6) =   1
                l(7) =   2
                l(8) =   2
                l(9) =   2
               l(10) =   2
     Q(r) pseudized with 0 coefficients 


     PseudoPot. # 2 for I  read from file:
     /scratch/cmalosso/degironcoli/pseudo/pseudo-usp/I.rel-pbesol-n-rrkjus_psl.1.0.0.UPF
     MD5 check sum: 0f96c6bfb1b448f280658f96eb466b08
     Pseudo is Ultrasoft + core correction, Zval =  7.0
     Generated using &quot;atomic&quot; code by A. Dal Corso  v.6.3
     Using radial grid of 1247 points, 10 beta functions with: 
                l(1) =   0
                l(2) =   0
                l(3) =   1
                l(4) =   1
                l(5) =   1
                l(6) =   1
                l(7) =   2
                l(8) =   2
                l(9) =   2
               l(10) =   2
     Q(r) pseudized with 0 coefficients 


     atomic species   valence    mass     pseudopotential
        Sn            14.00   118.70000     Sn( 1.00)
        I              7.00   126.90000     I ( 1.00)

     16 Sym. Ops., with inversion, found ( 8 have fractional translation)


                                    s                        frac. trans.

      isym =  1     identity                                     

 cryst.   s( 1) = (     1          0          0      )
                  (     0          1          0      )
                  (     0          0          1      )

 cart.    s( 1) = (  1.0000000  0.0000000  0.0000000 )
                  (  0.0000000  1.0000000  0.0000000 )
                  (  0.0000000  0.0000000  1.0000000 )


      isym =  2     180 deg rotation - cart. axis [0,0,1]        

 cryst.   s( 2) = (    -1          0          0      )
                  (     0         -1          0      )
                  (     0          0          1      )

 cart.    s( 2) = ( -1.0000000  0.0000000  0.0000000 )
                  (  0.0000000 -1.0000000  0.0000000 )
                  (  0.0000000  0.0000000  1.0000000 )


      isym =  3     180 deg rotation - cart. axis [0,1,0]        

 cryst.   s( 3) = (    -1          0          0      )    f =(  0.5000000 )
                  (     0          1          0      )       ( -0.5000000 )
                  (     0          0         -1      )       (  0.5000000 )

 cart.    s( 3) = ( -1.0000000  0.0000000  0.0000000 )    f =(  0.5000000 )
                  (  0.0000000  1.0000000  0.0000000 )       ( -0.5000000 )
                  (  0.0000000  0.0000000 -1.0000000 )       (  0.5000000 )


      isym =  4     180 deg rotation - cart. axis [1,0,0]        

 cryst.   s( 4) = (     1          0          0      )    f =( -0.5000000 )
                  (     0         -1          0      )       (  0.5000000 )
                  (     0          0         -1      )       (  0.5000000 )

 cart.    s( 4) = (  1.0000000  0.0000000  0.0000000 )    f =( -0.5000000 )
                  (  0.0000000 -1.0000000  0.0000000 )       (  0.5000000 )
                  (  0.0000000  0.0000000 -1.0000000 )       (  0.5000000 )


      isym =  5     180 deg rotation - cart. axis [1,1,0]        

 cryst.   s( 5) = (     0          1          0      )
                  (     1          0          0      )
                  (     0          0         -1      )

 cart.    s( 5) = (  0.0000000  1.0000000  0.0000000 )
                  (  1.0000000  0.0000000  0.0000000 )
                  (  0.0000000  0.0000000 -1.0000000 )


      isym =  6     180 deg rotation - cart. axis [1,-1,0]       

 cryst.   s( 6) = (     0         -1          0      )
                  (    -1          0          0      )
                  (     0          0         -1      )

 cart.    s( 6) = (  0.0000000 -1.0000000  0.0000000 )
                  ( -1.0000000  0.0000000  0.0000000 )
                  (  0.0000000  0.0000000 -1.0000000 )


      isym =  7      90 deg rotation - cart. axis [0,0,-1]       

 cryst.   s( 7) = (     0         -1          0      )    f =( -0.5000000 )
                  (     1          0          0      )       (  0.5000000 )
                  (     0          0          1      )       ( -0.5000000 )

 cart.    s( 7) = (  0.0000000  1.0000000  0.0000000 )    f =( -0.5000000 )
                  ( -1.0000000  0.0000000  0.0000000 )       (  0.5000000 )
                  (  0.0000000  0.0000000  1.0000000 )       ( -0.5000000 )


      isym =  8      90 deg rotation - cart. axis [0,0,1]        

 cryst.   s( 8) = (     0          1          0      )    f =(  0.5000000 )
                  (    -1          0          0      )       ( -0.5000000 )
                  (     0          0          1      )       ( -0.5000000 )

 cart.    s( 8) = (  0.0000000 -1.0000000  0.0000000 )    f =(  0.5000000 )
                  (  1.0000000  0.0000000  0.0000000 )       ( -0.5000000 )
                  (  0.0000000  0.0000000  1.0000000 )       ( -0.5000000 )


      isym =  9     inversion                                    

 cryst.   s( 9) = (    -1          0          0      )
                  (     0         -1          0      )
                  (     0          0         -1      )

 cart.    s( 9) = ( -1.0000000  0.0000000  0.0000000 )
                  (  0.0000000 -1.0000000  0.0000000 )
                  (  0.0000000  0.0000000 -1.0000000 )


      isym = 10     inv. 180 deg rotation - cart. axis [0,0,1]   

 cryst.   s(10) = (     1          0          0      )
                  (     0          1          0      )
                  (     0          0         -1      )

 cart.    s(10) = (  1.0000000  0.0000000  0.0000000 )
                  (  0.0000000  1.0000000  0.0000000 )
                  (  0.0000000  0.0000000 -1.0000000 )


      isym = 11     inv. 180 deg rotation - cart. axis [0,1,0]   

 cryst.   s(11) = (     1          0          0      )    f =( -0.5000000 )
                  (     0         -1          0      )       (  0.5000000 )
                  (     0          0          1      )       ( -0.5000000 )

 cart.    s(11) = (  1.0000000  0.0000000  0.0000000 )    f =( -0.5000000 )
                  (  0.0000000 -1.0000000  0.0000000 )       (  0.5000000 )
                  (  0.0000000  0.0000000  1.0000000 )       ( -0.5000000 )


      isym = 12     inv. 180 deg rotation - cart. axis [1,0,0]   

 cryst.   s(12) = (    -1          0          0      )    f =(  0.5000000 )
                  (     0          1          0      )       ( -0.5000000 )
                  (     0          0          1      )       ( -0.5000000 )

 cart.    s(12) = ( -1.0000000  0.0000000  0.0000000 )    f =(  0.5000000 )
                  (  0.0000000  1.0000000  0.0000000 )       ( -0.5000000 )
                  (  0.0000000  0.0000000  1.0000000 )       ( -0.5000000 )


      isym = 13     inv. 180 deg rotation - cart. axis [1,1,0]   

 cryst.   s(13) = (     0         -1          0      )
                  (    -1          0          0      )
                  (     0          0          1      )

 cart.    s(13) = (  0.0000000 -1.0000000  0.0000000 )
                  ( -1.0000000  0.0000000  0.0000000 )
                  (  0.0000000  0.0000000  1.0000000 )


      isym = 14     inv. 180 deg rotation - cart. axis [1,-1,0]  

 cryst.   s(14) = (     0          1          0      )
                  (     1          0          0      )
                  (     0          0          1      )

 cart.    s(14) = (  0.0000000  1.0000000  0.0000000 )
                  (  1.0000000  0.0000000  0.0000000 )
                  (  0.0000000  0.0000000  1.0000000 )


      isym = 15     inv.  90 deg rotation - cart. axis [0,0,-1]  

 cryst.   s(15) = (     0          1          0      )    f =(  0.5000000 )
                  (    -1          0          0      )       ( -0.5000000 )
                  (     0          0         -1      )       (  0.5000000 )

 cart.    s(15) = (  0.0000000 -1.0000000  0.0000000 )    f =(  0.5000000 )
                  (  1.0000000  0.0000000  0.0000000 )       ( -0.5000000 )
                  (  0.0000000  0.0000000 -1.0000000 )       (  0.5000000 )


      isym = 16     inv.  90 deg rotation - cart. axis [0,0,1]   

 cryst.   s(16) = (     0         -1          0      )    f =( -0.5000000 )
                  (     1          0          0      )       (  0.5000000 )
                  (     0          0         -1      )       (  0.5000000 )

 cart.    s(16) = (  0.0000000  1.0000000  0.0000000 )    f =( -0.5000000 )
                  ( -1.0000000  0.0000000  0.0000000 )       (  0.5000000 )
                  (  0.0000000  0.0000000 -1.0000000 )       (  0.5000000 )


     double point group D_4h(4/mmm)
     there are 14 classes and  4 irreducible representations
     the character table:

       E     -E    2C4   -2C4   C2    2C2' 2C2'' i     -i    2S4   -2S4   s_h 
                               -C2   -2C2' -2C2'                         -s_h 
G_6+   2.00 -2.00  1.41 -1.41  0.00  0.00  0.00  2.00 -2.00  1.41 -1.41  0.00
G_7+   2.00 -2.00 -1.41  1.41  0.00  0.00  0.00  2.00 -2.00 -1.41  1.41  0.00
G_6-   2.00 -2.00  1.41 -1.41  0.00  0.00  0.00 -2.00  2.00 -1.41  1.41  0.00
G_7-   2.00 -2.00 -1.41  1.41  0.00  0.00  0.00 -2.00  2.00  1.41 -1.41  0.00

        2s_v  2s_d
       -2s_v -2s_d
G_6+   0.00  0.00
G_7+   0.00  0.00
G_6-   0.00  0.00
G_7-   0.00  0.00

     the symmetry operations in each class and the name of the first element:

     E             1
          identity                                               
     -E           -1
          identity E                                             
     2C4           7    8
           90 deg rotation - cart. axis [0,0,-1]                 
     -2C4         -7   -8
           90 deg rotation - cart. axis [0,0,-1] E               
      C2  -C2      2   -2
          180 deg rotation - cart. axis [0,0,1]                  
      2C2'-2C2'    3   -3    4   -4
          180 deg rotation - cart. axis [0,1,0]                  
     2C2''-2C2'    5   -5   -6    6
          180 deg rotation - cart. axis [1,1,0]                  
     i             9
          inversion                                              
     -i           -9
          inversion E                                            
     2S4          15   16
          inv.  90 deg rotation - cart. axis [0,0,-1]            
     -2S4        -15  -16
          inv.  90 deg rotation - cart. axis [0,0,-1] E          
      s_h -s_h    10  -10
          inv. 180 deg rotation - cart. axis [0,0,1]             
      2s_v-2s_v   11  -11   12  -12
          inv. 180 deg rotation - cart. axis [0,1,0]             
      2s_d-2s_d   13  -13  -14   14
          inv. 180 deg rotation - cart. axis [1,1,0]             

   Cartesian axes

     site n.     atom                  positions (alat units)
         1           Sn  tau(   1) = (   0.0000000   0.0000000   0.0000000  )
         2           Sn  tau(   2) = (   0.5000000   0.5000000   0.5000000  )
         3           I   tau(   3) = (   0.2985210   0.2985210   0.0000000  )
         4           I   tau(   4) = (   0.7014790   0.7014790   0.0000000  )
         5           I   tau(   5) = (   0.7985210   0.2014790   0.5000000  )
         6           I   tau(   6) = (   0.2014790   0.7985210   0.5000000  )

   Crystallographic axes

     site n.     atom                  positions (cryst. coord.)
         1           Sn  tau(   1) = (  0.0000000  0.0000000  0.0000000  )
         2           Sn  tau(   2) = (  0.5000000  0.5000000  0.5000000  )
         3           I   tau(   3) = (  0.2985210  0.2985210  0.0000000  )
         4           I   tau(   4) = (  0.7014790  0.7014790  0.0000000  )
         5           I   tau(   5) = (  0.7985210  0.2014790  0.5000000  )
         6           I   tau(   6) = (  0.2014790  0.7985210  0.5000000  )

     number of k points=    18
                       cart. coord. in units 2pi/alat
        k(    1) = (   0.0833333   0.0833333   0.0833333), wk =   0.0370370
        k(    2) = (   0.0833333   0.0833333   0.2500000), wk =   0.0370370
        k(    3) = (   0.0833333   0.0833333   0.4166667), wk =   0.0370370
        k(    4) = (   0.0833333   0.2500000   0.2500000), wk =   0.0740741
        k(    5) = (   0.0833333   0.2500000   0.4166667), wk =   0.0740741
        k(    6) = (   0.0833333   0.4166667   0.4166667), wk =   0.0740741
        k(    7) = (   0.2500000   0.2500000   0.2500000), wk =   0.0370370
        k(    8) = (   0.2500000   0.2500000   0.4166667), wk =   0.0370370
        k(    9) = (   0.2500000   0.4166667   0.4166667), wk =   0.0740741
        k(   10) = (   0.4166667   0.4166667   0.4166667), wk =   0.0370370
        k(   11) = (   0.0833333   0.2500000   0.0833333), wk =   0.0740741
        k(   12) = (   0.0833333   0.4166667   0.0833333), wk =   0.0740741
        k(   13) = (   0.2500000   0.2500000   0.0833333), wk =   0.0370370
        k(   14) = (   0.2500000   0.4166667   0.0833333), wk =   0.0740741
        k(   15) = (   0.4166667   0.0833333   0.2500000), wk =   0.0740741
        k(   16) = (   0.4166667   0.4166667   0.0833333), wk =   0.0370370
        k(   17) = (   0.2500000   0.4166667   0.2500000), wk =   0.0740741
        k(   18) = (   0.4166667   0.4166667   0.2500000), wk =   0.0370370

                       cryst. coord.
        k(    1) = (   0.0833333   0.0833333   0.0833333), wk =   0.0370370
        k(    2) = (   0.0833333   0.0833333   0.2500000), wk =   0.0370370
        k(    3) = (   0.0833333   0.0833333   0.4166667), wk =   0.0370370
        k(    4) = (   0.0833333   0.2500000   0.2500000), wk =   0.0740741
        k(    5) = (   0.0833333   0.2500000   0.4166667), wk =   0.0740741
        k(    6) = (   0.0833333   0.4166667   0.4166667), wk =   0.0740741
        k(    7) = (   0.2500000   0.2500000   0.2500000), wk =   0.0370370
        k(    8) = (   0.2500000   0.2500000   0.4166667), wk =   0.0370370
        k(    9) = (   0.2500000   0.4166667   0.4166667), wk =   0.0740741
        k(   10) = (   0.4166667   0.4166667   0.4166667), wk =   0.0370370
        k(   11) = (   0.0833333   0.2500000   0.0833333), wk =   0.0740741
        k(   12) = (   0.0833333   0.4166667   0.0833333), wk =   0.0740741
        k(   13) = (   0.2500000   0.2500000   0.0833333), wk =   0.0370370
        k(   14) = (   0.2500000   0.4166667   0.0833333), wk =   0.0740741
        k(   15) = (   0.4166667   0.0833333   0.2500000), wk =   0.0740741
        k(   16) = (   0.4166667   0.4166667   0.0833333), wk =   0.0370370
        k(   17) = (   0.2500000   0.4166667   0.2500000), wk =   0.0740741
        k(   18) = (   0.4166667   0.4166667   0.2500000), wk =   0.0370370

     Dense  grid:   143473 G-vectors     FFT dimensions: (  72,  72,  72)

     Smooth grid:   102255 G-vectors     FFT dimensions: (  60,  60,  60)

     Dynamical RAM for                 wfc:       0.45 MB

     Dynamical RAM for     wfc (w. buffer):       8.64 MB

     Dynamical RAM for           str. fact:       0.09 MB

     Dynamical RAM for           local pot:       0.00 MB

     Dynamical RAM for          nlocal pot:       0.83 MB

     Dynamical RAM for                qrad:       5.95 MB

     Dynamical RAM for          rho,v,vnew:       1.50 MB

     Dynamical RAM for               rhoin:       0.50 MB

     Dynamical RAM for            rho*nmix:       2.92 MB

     Dynamical RAM for           G-vectors:       0.19 MB

     Dynamical RAM for          h,s,v(r/c):       0.57 MB

     Dynamical RAM for          <psi|beta>:       0.35 MB

     Dynamical RAM for                 psi:       0.91 MB

     Dynamical RAM for                hpsi:       0.91 MB

     Dynamical RAM for                spsi:       0.91 MB

     Dynamical RAM for      wfcinit/wfcrot:       0.93 MB

     Dynamical RAM for           addusdens:      28.02 MB

     Dynamical RAM for          addusforce:      28.37 MB

     Dynamical RAM for         addusstress:      28.66 MB

     Estimated static dynamical RAM per process >      21.38 MB

     Estimated max dynamical RAM per process >      50.04 MB

     Estimated total dynamical RAM >       2.35 GB

     Check: negative core charge=   -0.000003

     Initial potential from superposition of free atoms

     starting charge   55.99772, renormalised to   56.00000
     Starting wfcs are   68 randomized atomic wfcs

     total cpu time spent up to now is        6.7 secs

     Self-consistent Calculation

     iteration #  1     ecut=    40.00 Ry     beta= 0.35
     Davidson diagonalization with overlap
     ethr =  1.00E-02,  avg # of iterations =  1.0

     total cpu time spent up to now is       12.2 secs

     total energy              =    -458.24640297 Ry
     estimated scf accuracy    <       0.58824536 Ry

     iteration #  2     ecut=    40.00 Ry     beta= 0.35
     Davidson diagonalization with overlap
     ethr =  1.05E-03,  avg # of iterations =  3.0

     total cpu time spent up to now is       19.1 secs

     total energy              =    -458.32410937 Ry
     estimated scf accuracy    <       0.06128019 Ry

     iteration #  3     ecut=    40.00 Ry     beta= 0.35
     Davidson diagonalization with overlap
     ethr =  1.09E-04,  avg # of iterations =  6.0

     total cpu time spent up to now is       27.9 secs

     total energy              =    -458.33803148 Ry
     estimated scf accuracy    <       0.04449786 Ry

     iteration #  4     ecut=    40.00 Ry     beta= 0.35
     Davidson diagonalization with overlap
     ethr =  7.95E-05,  avg # of iterations =  5.2

     total cpu time spent up to now is       36.2 secs

     total energy              =    -458.34844869 Ry
     estimated scf accuracy    <       0.03379451 Ry

     iteration #  5     ecut=    40.00 Ry     beta= 0.35
     Davidson diagonalization with overlap
     ethr =  6.03E-05,  avg # of iterations =  2.5

     total cpu time spent up to now is       42.5 secs

     total energy              =    -458.35197882 Ry
     estimated scf accuracy    <       0.00180018 Ry

     iteration #  6     ecut=    40.00 Ry     beta= 0.35
     Davidson diagonalization with overlap
     ethr =  3.21E-06,  avg # of iterations = 11.1

     total cpu time spent up to now is       55.4 secs

     total energy              =    -458.35168392 Ry
     estimated scf accuracy    <       0.01800418 Ry

     iteration #  7     ecut=    40.00 Ry     beta= 0.35
     Davidson diagonalization with overlap
     ethr =  3.21E-06,  avg # of iterations =  6.6

     total cpu time spent up to now is       64.1 secs

     total energy              =    -458.35448733 Ry
     estimated scf accuracy    <       0.00007703 Ry

     iteration #  8     ecut=    40.00 Ry     beta= 0.35
     Davidson diagonalization with overlap
     ethr =  1.38E-07,  avg # of iterations =  7.8

     total cpu time spent up to now is       73.5 secs

     total energy              =    -458.35454670 Ry
     estimated scf accuracy    <       0.00000732 Ry

     iteration #  9     ecut=    40.00 Ry     beta= 0.35
     Davidson diagonalization with overlap
     ethr =  1.31E-08,  avg # of iterations =  5.6

     total cpu time spent up to now is       81.9 secs

     total energy              =    -458.35454850 Ry
     estimated scf accuracy    <       0.00000523 Ry

     iteration # 10     ecut=    40.00 Ry     beta= 0.35
     Davidson diagonalization with overlap
     ethr =  9.35E-09,  avg # of iterations =  5.1

     total cpu time spent up to now is       89.3 secs

     End of self-consistent calculation

          k = 0.0833 0.0833 0.0833 ( 12860 PWs)   bands (ev):

   -23.2415 -23.2415 -23.2409 -23.2409 -23.1168 -23.1168 -23.1161 -23.1161
   -22.2209 -22.2209 -22.2200 -22.2200 -22.1120 -22.1120 -22.1114 -22.1114
   -22.0614 -22.0614 -22.0601 -22.0601 -11.6211 -11.6211 -11.5305 -11.5305
   -11.4808 -11.4808 -11.4765 -11.4765  -7.0715  -7.0715  -6.8719  -6.8719
    -2.6885  -2.6885  -2.5268  -2.5268  -2.1404  -2.1404  -2.0294  -2.0294
    -1.8819  -1.8819  -1.5301  -1.5301  -1.2266  -1.2266  -1.1334  -1.1334
    -1.1085  -1.1085  -0.9961  -0.9961  -0.9245  -0.9245  -0.8840  -0.8840

     occupation numbers 
     1.0000   1.0000   1.0000   1.0000   1.0000   1.0000   1.0000   1.0000
     1.0000   1.0000   1.0000   1.0000   1.0000   1.0000   1.0000   1.0000
     1.0000   1.0000   1.0000   1.0000   1.0000   1.0000   1.0000   1.0000
     1.0000   1.0000   1.0000   1.0000   1.0000   1.0000   1.0000   1.0000
     1.0000   1.0000   1.0000   1.0000   1.0000   1.0000   1.0000   1.0000
     1.0000   1.0000   1.0000   1.0000   1.0000   1.0000   1.0000   1.0000
     1.0000   1.0000   1.0000   1.0000   1.0000   1.0000   1.0000   1.0000

          k = 0.0833 0.0833 0.2500 ( 12833 PWs)   bands (ev):

   -23.2409 -23.2409 -23.2400 -23.2400 -23.1162 -23.1162 -23.1158 -23.1158
   -22.2198 -22.2198 -22.2195 -22.2195 -22.1113 -22.1113 -22.1111 -22.1111
   -22.0606 -22.0606 -22.0601 -22.0601 -11.6088 -11.6088 -11.5423 -11.5423
   -11.4808 -11.4808 -11.4763 -11.4763  -7.0514  -7.0514  -6.9057  -6.9057
    -2.6758  -2.6758  -2.5241  -2.5241  -2.1291  -2.1291  -2.0078  -2.0078
    -1.8563  -1.8563  -1.5546  -1.5546  -1.2244  -1.2244  -1.1745  -1.1745
    -1.1319  -1.1319  -1.0241  -1.0241  -0.9348  -0.9348  -0.8974  -0.8974

     occupation numbers 
     1.0000   1.0000   1.0000   1.0000   1.0000   1.0000   1.0000   1.0000
     1.0000   1.0000   1.0000   1.0000   1.0000   1.0000   1.0000   1.0000
     1.0000   1.0000   1.0000   1.0000   1.0000   1.0000   1.0000   1.0000
     1.0000   1.0000   1.0000   1.0000   1.0000   1.0000   1.0000   1.0000
     1.0000   1.0000   1.0000   1.0000   1.0000   1.0000   1.0000   1.0000
     1.0000   1.0000   1.0000   1.0000   1.0000   1.0000   1.0000   1.0000
     1.0000   1.0000   1.0000   1.0000   1.0000   1.0000   1.0000   1.0000

          k = 0.0833 0.0833 0.4167 ( 12816 PWs)   bands (ev):

   -23.2404 -23.2404 -23.2398 -23.2398 -23.1157 -23.1157 -23.1156 -23.1156
   -22.2196 -22.2196 -22.2190 -22.2190 -22.1109 -22.1109 -22.1106 -22.1106
   -22.0604 -22.0604 -22.0597 -22.0597 -11.5876 -11.5876 -11.5629 -11.5629
   -11.4807 -11.4807 -11.4762 -11.4762  -7.0121  -7.0121  -6.9586  -6.9586
    -2.6636  -2.6636  -2.5201  -2.5201  -2.1279  -2.1279  -1.9904  -1.9904
    -1.7897  -1.7897  -1.6114  -1.6114  -1.2231  -1.2231  -1.2034  -1.2034
    -1.1356  -1.1356  -1.0589  -1.0589  -0.9617  -0.9617  -0.9113  -0.9113

     occupation numbers 
     1.0000   1.0000   1.0000   1.0000   1.0000   1.0000   1.0000   1.0000
     1.0000   1.0000   1.0000   1.0000   1.0000   1.0000   1.0000   1.0000
     1.0000   1.0000   1.0000   1.0000   1.0000   1.0000   1.0000   1.0000
     1.0000   1.0000   1.0000   1.0000   1.0000   1.0000   1.0000   1.0000
     1.0000   1.0000   1.0000   1.0000   1.0000   1.0000   1.0000   1.0000
     1.0000   1.0000   1.0000   1.0000   1.0000   1.0000   1.0000   1.0000
     1.0000   1.0000   1.0000   1.0000   1.0000   1.0000   1.0000   1.0000

          k = 0.0833 0.2500 0.2500 ( 12812 PWs)   bands (ev):

   -23.2406 -23.2406 -23.2396 -23.2396 -23.1158 -23.1158 -23.1150 -23.1150
   -22.2197 -22.2197 -22.2190 -22.2190 -22.1110 -22.1110 -22.1103 -22.1103
   -22.0602 -22.0602 -22.0593 -22.0593 -11.5938 -11.5938 -11.5375 -11.5375
   -11.4953 -11.4953 -11.4824 -11.4824  -7.0283  -7.0283  -6.9209  -6.9209
    -2.8230  -2.8230  -2.6489  -2.6489  -2.0990  -2.0990  -1.9416  -1.9416
    -1.8143  -1.8143  -1.5765  -1.5765  -1.2498  -1.2498  -1.1823  -1.1823
    -1.0526  -1.0526  -0.9642  -0.9642  -0.8993  -0.8993  -0.7151  -0.7151

     occupation numbers 
     1.0000   1.0000   1.0000   1.0000   1.0000   1.0000   1.0000   1.0000
     1.0000   1.0000   1.0000   1.0000   1.0000   1.0000   1.0000   1.0000
     1.0000   1.0000   1.0000   1.0000   1.0000   1.0000   1.0000   1.0000
     1.0000   1.0000   1.0000   1.0000   1.0000   1.0000   1.0000   1.0000
     1.0000   1.0000   1.0000   1.0000   1.0000   1.0000   1.0000   1.0000
     1.0000   1.0000   1.0000   1.0000   1.0000   1.0000   1.0000   1.0000
     1.0000   1.0000   1.0000   1.0000   1.0000   1.0000   1.0000   1.0000

          k = 0.0833 0.2500 0.4167 ( 12801 PWs)   bands (ev):

   -23.2402 -23.2402 -23.2392 -23.2392 -23.1156 -23.1156 -23.1150 -23.1150
   -22.2194 -22.2194 -22.2184 -22.2184 -22.1107 -22.1107 -22.1105 -22.1105
   -22.0601 -22.0601 -22.0591 -22.0591 -11.5763 -11.5763 -11.5532 -11.5532
   -11.4951 -11.4951 -11.4833 -11.4833  -7.0015  -7.0015  -6.9608  -6.9608
    -2.8356  -2.8356  -2.6529  -2.6529  -2.0653  -2.0653  -1.8871  -1.8871
    -1.8347  -1.8347  -1.5844  -1.5844  -1.2568  -1.2568  -1.1781  -1.1781
    -1.0680  -1.0680  -0.9802  -0.9802  -0.8926  -0.8926  -0.7144  -0.7144

     occupation numbers 
     1.0000   1.0000   1.0000   1.0000   1.0000   1.0000   1.0000   1.0000
     1.0000   1.0000   1.0000   1.0000   1.0000   1.0000   1.0000   1.0000
     1.0000   1.0000   1.0000   1.0000   1.0000   1.0000   1.0000   1.0000
     1.0000   1.0000   1.0000   1.0000   1.0000   1.0000   1.0000   1.0000
     1.0000   1.0000   1.0000   1.0000   1.0000   1.0000   1.0000   1.0000
     1.0000   1.0000   1.0000   1.0000   1.0000   1.0000   1.0000   1.0000
     1.0000   1.0000   1.0000   1.0000   1.0000   1.0000   1.0000   1.0000

          k = 0.0833 0.4167 0.4167 ( 12780 PWs)   bands (ev):

   -23.2401 -23.2401 -23.2386 -23.2386 -23.1154 -23.1154 -23.1139 -23.1139
   -22.2192 -22.2192 -22.2180 -22.2180 -22.1102 -22.1102 -22.1099 -22.1099
   -22.0595 -22.0595 -22.0583 -22.0583 -11.5574 -11.5574 -11.5442 -11.5442
   -11.5083 -11.5083 -11.4986 -11.4986  -6.9852  -6.9852  -6.9687  -6.9687
    -2.9028  -2.9028  -2.8260  -2.8260  -2.0201  -2.0201  -1.9099  -1.9099
    -1.7861  -1.7861  -1.5864  -1.5864  -1.2443  -1.2443  -1.1978  -1.1978
    -0.9688  -0.9688  -0.9355  -0.9355  -0.7182  -0.7182  -0.5753  -0.5753

     occupation numbers 
     1.0000   1.0000   1.0000   1.0000   1.0000   1.0000   1.0000   1.0000
     1.0000   1.0000   1.0000   1.0000   1.0000   1.0000   1.0000   1.0000
     1.0000   1.0000   1.0000   1.0000   1.0000   1.0000   1.0000   1.0000
     1.0000   1.0000   1.0000   1.0000   1.0000   1.0000   1.0000   1.0000
     1.0000   1.0000   1.0000   1.0000   1.0000   1.0000   1.0000   1.0000
     1.0000   1.0000   1.0000   1.0000   1.0000   1.0000   1.0000   1.0000
     1.0000   1.0000   1.0000   1.0000   1.0000   1.0000   1.0000   1.0000

          k = 0.2500 0.2500 0.2500 ( 12776 PWs)   bands (ev):

   -23.2399 -23.2399 -23.2387 -23.2387 -23.1151 -23.1151 -23.1139 -23.1139
   -22.2189 -22.2189 -22.2183 -22.2183 -22.1106 -22.1106 -22.1089 -22.1089
   -22.0597 -22.0597 -22.0581 -22.0581 -11.5853 -11.5853 -11.5374 -11.5374
   -11.5044 -11.5044 -11.4813 -11.4813  -7.0183  -7.0183  -6.9376  -6.9376
    -2.8814  -2.8814  -2.5361  -2.5361  -2.0964  -2.0964  -1.9273  -1.9273
    -1.8730  -1.8730  -1.6040  -1.6040  -1.2960  -1.2960  -1.2286  -1.2286
    -1.1217  -1.1217  -0.9338  -0.9338  -0.8787  -0.8787  -0.5885  -0.5885

     occupation numbers 
     1.0000   1.0000   1.0000   1.0000   1.0000   1.0000   1.0000   1.0000
     1.0000   1.0000   1.0000   1.0000   1.0000   1.0000   1.0000   1.0000
     1.0000   1.0000   1.0000   1.0000   1.0000   1.0000   1.0000   1.0000
     1.0000   1.0000   1.0000   1.0000   1.0000   1.0000   1.0000   1.0000
     1.0000   1.0000   1.0000   1.0000   1.0000   1.0000   1.0000   1.0000
     1.0000   1.0000   1.0000   1.0000   1.0000   1.0000   1.0000   1.0000
     1.0000   1.0000   1.0000   1.0000   1.0000   1.0000   1.0000   1.0000

          k = 0.2500 0.2500 0.4167 ( 12815 PWs)   bands (ev):

   -23.2406 -23.2406 -23.2396 -23.2396 -23.1159 -23.1159 -23.1152 -23.1152
   -22.2198 -22.2198 -22.2186 -22.2186 -22.1114 -22.1114 -22.1108 -22.1108
   -22.0604 -22.0604 -22.0590 -22.0590 -11.5740 -11.5740 -11.5446 -11.5446
   -11.5075 -11.5075 -11.4811 -11.4811  -7.0024  -7.0024  -6.9669  -6.9669
    -2.8992  -2.8992  -2.5215  -2.5215  -2.1172  -2.1172  -1.8877  -1.8877
    -1.8739  -1.8739  -1.5834  -1.5834  -1.3084  -1.3084  -1.2068  -1.2068
    -1.1212  -1.1212  -0.9281  -0.9281  -0.8684  -0.8684  -0.5780  -0.5780

     occupation numbers 
     1.0000   1.0000   1.0000   1.0000   1.0000   1.0000   1.0000   1.0000
     1.0000   1.0000   1.0000   1.0000   1.0000   1.0000   1.0000   1.0000
     1.0000   1.0000   1.0000   1.0000   1.0000   1.0000   1.0000   1.0000
     1.0000   1.0000   1.0000   1.0000   1.0000   1.0000   1.0000   1.0000
     1.0000   1.0000   1.0000   1.0000   1.0000   1.0000   1.0000   1.0000
     1.0000   1.0000   1.0000   1.0000   1.0000   1.0000   1.0000   1.0000
     1.0000   1.0000   1.0000   1.0000   1.0000   1.0000   1.0000   1.0000

          k = 0.2500 0.4167 0.4167 ( 12803 PWs)   bands (ev):

   -23.2408 -23.2408 -23.2390 -23.2390 -23.1160 -23.1160 -23.1144 -23.1144
   -22.2199 -22.2199 -22.2185 -22.2185 -22.1108 -22.1108 -22.1101 -22.1101
   -22.0602 -22.0602 -22.0590 -22.0590 -11.5645 -11.5645 -11.5502 -11.5502
   -11.5028 -11.5028 -11.4890 -11.4890  -6.9959  -6.9959  -6.9805  -6.9805
    -2.8246  -2.8246  -2.6480  -2.6480  -2.0800  -2.0800  -1.9404  -1.9404
    -1.8231  -1.8231  -1.5894  -1.5894  -1.2929  -1.2929  -1.2362  -1.2362
    -1.0298  -1.0298  -0.8985  -0.8985  -0.8323  -0.8323  -0.7222  -0.7222

     occupation numbers 
     1.0000   1.0000   1.0000   1.0000   1.0000   1.0000   1.0000   1.0000
     1.0000   1.0000   1.0000   1.0000   1.0000   1.0000   1.0000   1.0000
     1.0000   1.0000   1.0000   1.0000   1.0000   1.0000   1.0000   1.0000
     1.0000   1.0000   1.0000   1.0000   1.0000   1.0000   1.0000   1.0000
     1.0000   1.0000   1.0000   1.0000   1.0000   1.0000   1.0000   1.0000
     1.0000   1.0000   1.0000   1.0000   1.0000   1.0000   1.0000   1.0000
     1.0000   1.0000   1.0000   1.0000   1.0000   1.0000   1.0000   1.0000

          k = 0.4167 0.4167 0.4167 ( 12802 PWs)   bands (ev):

   -23.2405 -23.2405 -23.2395 -23.2395 -23.1157 -23.1157 -23.1147 -23.1147
   -22.2198 -22.2198 -22.2190 -22.2190 -22.1106 -22.1106 -22.1097 -22.1097
   -22.0602 -22.0602 -22.0593 -22.0593 -11.5661 -11.5661 -11.5604 -11.5604
   -11.4918 -11.4918 -11.4861 -11.4861  -7.0027  -7.0027  -6.9960  -6.9960
    -2.6453  -2.6453  -2.5230  -2.5230  -2.1157  -2.1157  -1.9822  -1.9822
    -1.8674  -1.8674  -1.6644  -1.6644  -1.3330  -1.3330  -1.2815  -1.2815
    -1.0939  -1.0939  -1.0115  -1.0115  -0.8108  -0.8108  -0.7960  -0.7960

     occupation numbers 
     1.0000   1.0000   1.0000   1.0000   1.0000   1.0000   1.0000   1.0000
     1.0000   1.0000   1.0000   1.0000   1.0000   1.0000   1.0000   1.0000
     1.0000   1.0000   1.0000   1.0000   1.0000   1.0000   1.0000   1.0000
     1.0000   1.0000   1.0000   1.0000   1.0000   1.0000   1.0000   1.0000
     1.0000   1.0000   1.0000   1.0000   1.0000   1.0000   1.0000   1.0000
     1.0000   1.0000   1.0000   1.0000   1.0000   1.0000   1.0000   1.0000
     1.0000   1.0000   1.0000   1.0000   1.0000   1.0000   1.0000   1.0000

          k = 0.0833 0.2500 0.0833 ( 12833 PWs)   bands (ev):

   -23.2410 -23.2410 -23.2404 -23.2404 -23.1162 -23.1162 -23.1153 -23.1153
   -22.2204 -22.2204 -22.2196 -22.2196 -22.1115 -22.1115 -22.1106 -22.1106
   -22.0607 -22.0607 -22.0595 -22.0595 -11.6044 -11.6044 -11.5291 -11.5291
   -11.4948 -11.4948 -11.4816 -11.4816  -7.0414  -7.0414  -6.8947  -6.8947
    -2.8075  -2.8075  -2.6440  -2.6440  -2.1561  -2.1561  -1.9719  -1.9719
    -1.8027  -1.8027  -1.5554  -1.5554  -1.2429  -1.2429  -1.1864  -1.1864
    -1.0389  -1.0389  -0.9564  -0.9564  -0.9019  -0.9019  -0.7151  -0.7151

     occupation numbers 
     1.0000   1.0000   1.0000   1.0000   1.0000   1.0000   1.0000   1.0000
     1.0000   1.0000   1.0000   1.0000   1.0000   1.0000   1.0000   1.0000
     1.0000   1.0000   1.0000   1.0000   1.0000   1.0000   1.0000   1.0000
     1.0000   1.0000   1.0000   1.0000   1.0000   1.0000   1.0000   1.0000
     1.0000   1.0000   1.0000   1.0000   1.0000   1.0000   1.0000   1.0000
     1.0000   1.0000   1.0000   1.0000   1.0000   1.0000   1.0000   1.0000
     1.0000   1.0000   1.0000   1.0000   1.0000   1.0000   1.0000   1.0000

          k = 0.0833 0.4167 0.0833 ( 12816 PWs)   bands (ev):

   -23.2405 -23.2405 -23.2402 -23.2402 -23.1157 -23.1157 -23.1151 -23.1151
   -22.2198 -22.2198 -22.2195 -22.2195 -22.1111 -22.1111 -22.1103 -22.1103
   -22.0600 -22.0600 -22.0595 -22.0595 -11.5755 -11.5755 -11.5440 -11.5440
   -11.5002 -11.5002 -11.4913 -11.4913  -6.9914  -6.9914  -6.9374  -6.9374
    -2.8602  -2.8602  -2.7933  -2.7933  -2.1009  -2.1009  -2.0132  -2.0132
    -1.7061  -1.7061  -1.6062  -1.6062  -1.2689  -1.2689  -1.2446  -1.2446
    -0.9973  -0.9973  -0.9487  -0.9487  -0.7243  -0.7243  -0.5962  -0.5962

     occupation numbers 
     1.0000   1.0000   1.0000   1.0000   1.0000   1.0000   1.0000   1.0000
     1.0000   1.0000   1.0000   1.0000   1.0000   1.0000   1.0000   1.0000
     1.0000   1.0000   1.0000   1.0000   1.0000   1.0000   1.0000   1.0000
     1.0000   1.0000   1.0000   1.0000   1.0000   1.0000   1.0000   1.0000
     1.0000   1.0000   1.0000   1.0000   1.0000   1.0000   1.0000   1.0000
     1.0000   1.0000   1.0000   1.0000   1.0000   1.0000   1.0000   1.0000
     1.0000   1.0000   1.0000   1.0000   1.0000   1.0000   1.0000   1.0000

          k = 0.2500 0.2500 0.0833 ( 12812 PWs)   bands (ev):

   -23.2405 -23.2405 -23.2400 -23.2400 -23.1158 -23.1158 -23.1148 -23.1148
   -22.2200 -22.2200 -22.2192 -22.2192 -22.1109 -22.1109 -22.1099 -22.1099
   -22.0605 -22.0605 -22.0590 -22.0590 -11.5934 -11.5934 -11.5338 -11.5338
   -11.5009 -11.5009 -11.4815 -11.4815  -7.0256  -7.0256  -6.9170  -6.9170
    -2.8598  -2.8598  -2.5523  -2.5523  -2.0856  -2.0856  -1.9805  -1.9805
    -1.8693  -1.8693  -1.5871  -1.5871  -1.2953  -1.2953  -1.2498  -1.2498
    -1.1217  -1.1217  -0.9331  -0.9331  -0.8981  -0.8981  -0.5977  -0.5977

     occupation numbers 
     1.0000   1.0000   1.0000   1.0000   1.0000   1.0000   1.0000   1.0000
     1.0000   1.0000   1.0000   1.0000   1.0000   1.0000   1.0000   1.0000
     1.0000   1.0000   1.0000   1.0000   1.0000   1.0000   1.0000   1.0000
     1.0000   1.0000   1.0000   1.0000   1.0000   1.0000   1.0000   1.0000
     1.0000   1.0000   1.0000   1.0000   1.0000   1.0000   1.0000   1.0000
     1.0000   1.0000   1.0000   1.0000   1.0000   1.0000   1.0000   1.0000
     1.0000   1.0000   1.0000   1.0000   1.0000   1.0000   1.0000   1.0000

          k = 0.2500 0.4167 0.0833 ( 12801 PWs)   bands (ev):

   -23.2402 -23.2402 -23.2398 -23.2398 -23.1153 -23.1153 -23.1147 -23.1147
   -22.2195 -22.2195 -22.2192 -22.2192 -22.1103 -22.1103 -22.1097 -22.1097
   -22.0600 -22.0600 -22.0592 -22.0592 -11.5740 -11.5740 -11.5514 -11.5514
   -11.4964 -11.4964 -11.4874 -11.4874  -6.9946  -6.9946  -6.9544  -6.9544
    -2.7906  -2.7906  -2.6401  -2.6401  -2.0655  -2.0655  -2.0074  -2.0074
    -1.7672  -1.7672  -1.6408  -1.6408  -1.3496  -1.3496  -1.3219  -1.3219
    -1.0339  -1.0339  -0.9325  -0.9325  -0.8581  -0.8581  -0.7082  -0.7082

     occupation numbers 
     1.0000   1.0000   1.0000   1.0000   1.0000   1.0000   1.0000   1.0000
     1.0000   1.0000   1.0000   1.0000   1.0000   1.0000   1.0000   1.0000
     1.0000   1.0000   1.0000   1.0000   1.0000   1.0000   1.0000   1.0000
     1.0000   1.0000   1.0000   1.0000   1.0000   1.0000   1.0000   1.0000
     1.0000   1.0000   1.0000   1.0000   1.0000   1.0000   1.0000   1.0000
     1.0000   1.0000   1.0000   1.0000   1.0000   1.0000   1.0000   1.0000
     1.0000   1.0000   1.0000   1.0000   1.0000   1.0000   1.0000   1.0000

          k = 0.4167 0.0833 0.2500 ( 12801 PWs)   bands (ev):

   -23.2404 -23.2404 -23.2396 -23.2396 -23.1154 -23.1154 -23.1146 -23.1146
   -22.2196 -22.2196 -22.2191 -22.2191 -22.1107 -22.1107 -22.1099 -22.1099
   -22.0597 -22.0597 -22.0591 -22.0591 -11.5682 -11.5682 -11.5426 -11.5426
   -11.5044 -11.5044 -11.4945 -11.4945  -6.9906  -6.9906  -6.9508  -6.9508
    -2.8836  -2.8836  -2.8108  -2.8108  -2.0488  -2.0488  -1.9606  -1.9606
    -1.7561  -1.7561  -1.5934  -1.5934  -1.2597  -1.2597  -1.2252  -1.2252
    -0.9988  -0.9988  -0.9272  -0.9272  -0.7251  -0.7251  -0.5886  -0.5886

     occupation numbers 
     1.0000   1.0000   1.0000   1.0000   1.0000   1.0000   1.0000   1.0000
     1.0000   1.0000   1.0000   1.0000   1.0000   1.0000   1.0000   1.0000
     1.0000   1.0000   1.0000   1.0000   1.0000   1.0000   1.0000   1.0000
     1.0000   1.0000   1.0000   1.0000   1.0000   1.0000   1.0000   1.0000
     1.0000   1.0000   1.0000   1.0000   1.0000   1.0000   1.0000   1.0000
     1.0000   1.0000   1.0000   1.0000   1.0000   1.0000   1.0000   1.0000
     1.0000   1.0000   1.0000   1.0000   1.0000   1.0000   1.0000   1.0000

          k = 0.4167 0.4167 0.0833 ( 12780 PWs)   bands (ev):

   -23.2397 -23.2397 -23.2393 -23.2393 -23.1147 -23.1147 -23.1143 -23.1143
   -22.2192 -22.2192 -22.2188 -22.2188 -22.1093 -22.1093 -22.1091 -22.1091
   -22.0595 -22.0595 -22.0591 -22.0591 -11.5695 -11.5695 -11.5613 -11.5613
   -11.4902 -11.4902 -11.4865 -11.4865  -6.9921  -6.9921  -6.9771  -6.9771
    -2.6355  -2.6355  -2.5420  -2.5420  -2.0231  -2.0231  -1.9610  -1.9610
    -1.8491  -1.8491  -1.7230  -1.7230  -1.4106  -1.4106  -1.4010  -1.4010
    -1.1217  -1.1217  -1.0272  -1.0272  -0.8407  -0.8407  -0.8165  -0.8165

     occupation numbers 
     1.0000   1.0000   1.0000   1.0000   1.0000   1.0000   1.0000   1.0000
     1.0000   1.0000   1.0000   1.0000   1.0000   1.0000   1.0000   1.0000
     1.0000   1.0000   1.0000   1.0000   1.0000   1.0000   1.0000   1.0000
     1.0000   1.0000   1.0000   1.0000   1.0000   1.0000   1.0000   1.0000
     1.0000   1.0000   1.0000   1.0000   1.0000   1.0000   1.0000   1.0000
     1.0000   1.0000   1.0000   1.0000   1.0000   1.0000   1.0000   1.0000
     1.0000   1.0000   1.0000   1.0000   1.0000   1.0000   1.0000   1.0000

          k = 0.2500 0.4167 0.2500 ( 12815 PWs)   bands (ev):

   -23.2406 -23.2406 -23.2400 -23.2400 -23.1157 -23.1157 -23.1150 -23.1150
   -22.2198 -22.2198 -22.2195 -22.2195 -22.1108 -22.1108 -22.1100 -22.1100
   -22.0603 -22.0603 -22.0595 -22.0595 -11.5696 -11.5696 -11.5506 -11.5506
   -11.4995 -11.4995 -11.4882 -11.4882  -6.9966  -6.9966  -6.9662  -6.9662
    -2.8092  -2.8092  -2.6442  -2.6442  -2.0665  -2.0665  -1.9621  -1.9621
    -1.8071  -1.8071  -1.6254  -1.6254  -1.3198  -1.3198  -1.2838  -1.2838
    -1.0277  -1.0277  -0.9163  -0.9163  -0.8461  -0.8461  -0.7137  -0.7137

     occupation numbers 
     1.0000   1.0000   1.0000   1.0000   1.0000   1.0000   1.0000   1.0000
     1.0000   1.0000   1.0000   1.0000   1.0000   1.0000   1.0000   1.0000
     1.0000   1.0000   1.0000   1.0000   1.0000   1.0000   1.0000   1.0000
     1.0000   1.0000   1.0000   1.0000   1.0000   1.0000   1.0000   1.0000
     1.0000   1.0000   1.0000   1.0000   1.0000   1.0000   1.0000   1.0000
     1.0000   1.0000   1.0000   1.0000   1.0000   1.0000   1.0000   1.0000
     1.0000   1.0000   1.0000   1.0000   1.0000   1.0000   1.0000   1.0000

          k = 0.4167 0.4167 0.2500 ( 12803 PWs)   bands (ev):

   -23.2403 -23.2403 -23.2399 -23.2399 -23.1155 -23.1155 -23.1146 -23.1146
   -22.2196 -22.2196 -22.2194 -22.2194 -22.1103 -22.1103 -22.1096 -22.1096
   -22.0601 -22.0601 -22.0592 -22.0592 -11.5678 -11.5678 -11.5609 -11.5609
   -11.4910 -11.4910 -11.4863 -11.4863  -6.9978  -6.9978  -6.9862  -6.9862
    -2.6409  -2.6409  -2.5321  -2.5321  -2.0700  -2.0700  -1.9628  -1.9628
    -1.8638  -1.8638  -1.7007  -1.7007  -1.3729  -1.3729  -1.3531  -1.3531
    -1.0988  -1.0988  -1.0089  -1.0089  -0.8265  -0.8265  -0.8098  -0.8098

     occupation numbers 
     1.0000   1.0000   1.0000   1.0000   1.0000   1.0000   1.0000   1.0000
     1.0000   1.0000   1.0000   1.0000   1.0000   1.0000   1.0000   1.0000
     1.0000   1.0000   1.0000   1.0000   1.0000   1.0000   1.0000   1.0000
     1.0000   1.0000   1.0000   1.0000   1.0000   1.0000   1.0000   1.0000
     1.0000   1.0000   1.0000   1.0000   1.0000   1.0000   1.0000   1.0000
     1.0000   1.0000   1.0000   1.0000   1.0000   1.0000   1.0000   1.0000
     1.0000   1.0000   1.0000   1.0000   1.0000   1.0000   1.0000   1.0000

     highest occupied level (ev):    -0.5753

!    total energy              =    -458.35454974 Ry
     estimated scf accuracy    <       0.00000056 Ry

     The total energy is the sum of the following terms:
     one-electron contribution =    -256.41231763 Ry
     hartree contribution      =     145.37850754 Ry
     xc contribution           =    -157.06897930 Ry
     ewald contribution        =    -190.25176035 Ry

     convergence has been achieved in  10 iterations

     Forces acting on atoms (cartesian axes, Ry/au):

     atom    1 type  1   force =     0.00000000    0.00000000    0.00000000
     atom    2 type  1   force =     0.00000000    0.00000000    0.00000000
     atom    3 type  2   force =    -0.01800516   -0.01800516    0.00000000
     atom    4 type  2   force =     0.01800516    0.01800516    0.00000000
     atom    5 type  2   force =    -0.01800516    0.01800516    0.00000000
     atom    6 type  2   force =     0.01800516   -0.01800516    0.00000000
     The non-local contrib.  to forces
     atom    1 type  1   force =     0.00000000    0.00000000    0.00000000
     atom    2 type  1   force =     0.00000000    0.00000000    0.00000000
     atom    3 type  2   force =    -0.04130858   -0.04130858    0.00000000
     atom    4 type  2   force =     0.04130858    0.04130858   -0.00000000
     atom    5 type  2   force =    -0.04130858    0.04130858    0.00000000
     atom    6 type  2   force =     0.04130858   -0.04130858    0.00000000
     The ionic contribution  to forces
     atom    1 type  1   force =    -0.00000000   -0.00000000    0.00000000
     atom    2 type  1   force =    -0.00000000   -0.00000000    0.00000000
     atom    3 type  2   force =     1.38633658    1.38633658    0.00000000
     atom    4 type  2   force =    -1.38633658   -1.38633658   -0.00000000
     atom    5 type  2   force =     1.38633658   -1.38633658    0.00000000
     atom    6 type  2   force =    -1.38633658    1.38633658    0.00000000
     The local contribution  to forces
     atom    1 type  1   force =    -0.00000000   -0.00000000   -0.00000000
     atom    2 type  1   force =     0.00000000    0.00000000    0.00000000
     atom    3 type  2   force =    -1.36686654   -1.36686654    0.00000000
     atom    4 type  2   force =     1.36686654    1.36686654    0.00000000
     atom    5 type  2   force =    -1.36686654    1.36686654    0.00000000
     atom    6 type  2   force =     1.36686654   -1.36686654    0.00000000
     The core correction contribution to forces
     atom    1 type  1   force =    -0.00000000   -0.00000000   -0.00000000
     atom    2 type  1   force =     0.00000000    0.00000000    0.00000000
     atom    3 type  2   force =     0.00390821    0.00390821   -0.00000000
     atom    4 type  2   force =    -0.00390821   -0.00390821   -0.00000000
     atom    5 type  2   force =     0.00390821   -0.00390821   -0.00000000
     atom    6 type  2   force =    -0.00390821    0.00390821   -0.00000000
     The Hubbard contrib.    to forces
     atom    1 type  1   force =     0.00000000    0.00000000    0.00000000
     atom    2 type  1   force =     0.00000000    0.00000000    0.00000000
     atom    3 type  2   force =     0.00000000    0.00000000    0.00000000
     atom    4 type  2   force =     0.00000000    0.00000000    0.00000000
     atom    5 type  2   force =     0.00000000    0.00000000    0.00000000
     atom    6 type  2   force =     0.00000000    0.00000000    0.00000000
     The SCF correction term to forces
     atom    1 type  1   force =    -0.00000000    0.00000000   -0.00000000
     atom    2 type  1   force =     0.00000000    0.00000000    0.00000000
     atom    3 type  2   force =    -0.00007483   -0.00007483   -0.00000000
     atom    4 type  2   force =     0.00007483    0.00007483   -0.00000000
     atom    5 type  2   force =    -0.00007483    0.00007483    0.00000000
     atom    6 type  2   force =     0.00007483   -0.00007483    0.00000000

     Total force =     0.050926     Total SCF correction =     0.000212


     Computing stress (Cartesian axis) and pressure

          total   stress  (Ry/bohr**3)                   (kbar)     P=      -48.71
  -0.00033350   0.00000000   0.00000000          -49.06        0.00        0.00
   0.00000000  -0.00033350   0.00000000            0.00      -49.06        0.00
   0.00000000   0.00000000  -0.00032629            0.00        0.00      -48.00

     kinetic stress (kbar)   4490.10      0.00      0.00
                                0.00   4490.10      0.00
                                0.00      0.00   4484.91

     local   stress (kbar)  -2716.78      0.00      0.00
                                0.00  -2716.78      0.00
                                0.00      0.00  -2201.10

     nonloc. stress (kbar)     39.10      0.00      0.00
                                0.00     39.10      0.00
                                0.00      0.00     23.88

     hartree stress (kbar)   2421.83     -0.00     -0.00
                               -0.00   2421.83     -0.00
                               -0.00     -0.00   2288.76

     exc-cor stress (kbar)   3792.35      0.00     -0.00
                                0.00   3792.35      0.00
                               -0.00      0.00   3791.35

     corecor stress (kbar)  -5084.67     -0.00     -0.00
                               -0.00  -5084.67      0.00
                               -0.00      0.00  -5083.83

     ewald   stress (kbar)  -2990.99     -0.00     -0.00
                               -0.00  -2990.99     -0.00
                               -0.00     -0.00  -3351.97

     hubbard stress (kbar)      0.00      0.00      0.00
                                0.00      0.00      0.00
                                0.00      0.00      0.00

     DFT-D   stress (kbar)      0.00      0.00      0.00
                                0.00      0.00      0.00
                                0.00      0.00      0.00

     XDM     stress (kbar)      0.00      0.00      0.00
                                0.00      0.00      0.00
                                0.00      0.00      0.00

     dft-nl  stress (kbar)      0.00      0.00      0.00
                                0.00      0.00      0.00
                                0.00      0.00      0.00

     TS-vdW  stress (kbar)      0.00      0.00      0.00
                                0.00      0.00      0.00
                                0.00      0.00      0.00



     Writing output data file ./SnI2.save/

     init_run     :      5.62s CPU      3.99s WALL (       1 calls)
     electrons    :    151.94s CPU     82.77s WALL (       1 calls)
     forces       :      3.04s CPU      2.61s WALL (       1 calls)
     stress       :      8.07s CPU      4.54s WALL (       1 calls)

     Called by init_run:
     wfcinit      :      4.32s CPU      2.49s WALL (       1 calls)
     wfcinit:atom :      0.02s CPU      0.01s WALL (      18 calls)
     wfcinit:wfcr :      4.17s CPU      2.38s WALL (      18 calls)
     potinit      :      0.21s CPU      0.14s WALL (       1 calls)
     hinit0       :      0.54s CPU      0.66s WALL (       1 calls)

     Called by electrons:
     c_bands      :    125.28s CPU     67.75s WALL (      10 calls)
     sum_band     :     21.97s CPU     11.43s WALL (      10 calls)
     v_of_rho     :      0.37s CPU      0.21s WALL (      11 calls)
     v_h          :      0.04s CPU      0.03s WALL (      11 calls)
     v_xc         :      0.38s CPU      0.21s WALL (      13 calls)
     newd         :      3.93s CPU      2.93s WALL (      11 calls)
     mix_rho      :      0.33s CPU      0.22s WALL (      10 calls)

     Called by c_bands:
     init_us_2    :      0.52s CPU      0.29s WALL (     414 calls)
     cegterg      :    121.81s CPU     65.32s WALL (     180 calls)

     Called by sum_band:
     sum_band:wei :      0.00s CPU      0.00s WALL (      10 calls)
     sum_band:loo :     19.36s CPU     10.04s WALL (      10 calls)
     sum_band:buf :      0.07s CPU      0.04s WALL (     180 calls)
     sum_band:ini :      0.20s CPU      0.10s WALL (     180 calls)
     sum_band:cal :      1.22s CPU      0.62s WALL (     180 calls)
     sum_band:bec :      4.71s CPU      2.40s WALL (     180 calls)
     addusdens    :      2.38s CPU      1.24s WALL (      10 calls)
     addusd:skk   :      0.00s CPU      0.00s WALL (      20 calls)
     addusd:dgemm :      0.87s CPU      0.47s WALL (      20 calls)
     addusd:qvan2 :      1.46s CPU      0.75s WALL (      20 calls)

     Called by *egterg:
     cdiaghg      :      8.20s CPU      4.42s WALL (    1152 calls)
     cegterg:over :      5.14s CPU      2.82s WALL (     972 calls)
     cegterg:upda :      1.29s CPU      0.66s WALL (     972 calls)
     cegterg:last :      2.33s CPU      1.19s WALL (     516 calls)
     h_psi        :     96.60s CPU     51.29s WALL (    1170 calls)
     s_psi        :      7.10s CPU      4.13s WALL (    1170 calls)
     g_psi        :      0.18s CPU      0.09s WALL (     972 calls)

     Called by h_psi:
     h_psi:calbec :      4.55s CPU      2.33s WALL (    1170 calls)
     vloc_psi     :     86.64s CPU     45.86s WALL (    1170 calls)
     add_vuspsi   :      5.20s CPU      2.99s WALL (    1170 calls)

     General routines
     calbec       :      7.23s CPU      4.09s WALL (    1440 calls)
     fft          :      0.77s CPU      0.45s WALL (     259 calls)
     ffts         :      0.15s CPU      0.08s WALL (      84 calls)
     fftw         :     91.64s CPU     48.53s WALL (  156680 calls)
     interpolate  :      0.15s CPU      0.08s WALL (      44 calls)

     Parallel routines
     fft_scatt_xy :      3.99s CPU      2.03s WALL (  157023 calls)
     fft_scatt_yz :     63.51s CPU     34.12s WALL (  157023 calls)

     PWSCF        :   2m51.00s CPU   1m39.14s WALL


   This run was terminated on:  10:28:12  31Jan2021            

=------------------------------------------------------------------------------=
   JOB DONE.
=------------------------------------------------------------------------------=
