
     Program PWSCF v.6.7MaX starts on 31Jan2021 at 11: 2:36 

     This program is part of the open-source Quantum ESPRESSO suite
     for quantum simulation of materials; please cite
         "P. Giannozzi et al., J. Phys.:Condens. Matter 21 395502 (2009);
         "P. Giannozzi et al., J. Phys.:Condens. Matter 29 465901 (2017);
          URL http://www.quantum-espresso.org", 
     in publications or presentations arising from this work. More details at
     http://www.quantum-espresso.org/quote

     Parallel version (MPI & OpenMP), running on      96 processor cores
     Number of MPI processes:                48
     Threads/MPI process:                     2

     MPI processes distributed on     2 nodes
     R & G space division:  proc/nbgrp/npool/nimage =      48
     Waiting for input...
     Reading input from standard input

     Current dimensions of program PWSCF are:
     Max number of different atomic species (ntypx) = 10
     Max number of k-points (npk) =  40000
     Max angular momentum in pseudopotentials (lmaxx) =  3
     file Sn.rel-pbesol-dn-rrkjus_psl.1.0.0.UPF: wavefunction(s)  5S 4D 4D renormalized
     file I.rel-pbesol-n-rrkjus_psl.1.0.0.UPF: wavefunction(s)  5S renormalized

     Subspace diagonalization in iterative solution of the eigenvalue problem:
     a serial algorithm will be used


     Parallelization info
     --------------------
     sticks:   dense  smooth     PW     G-vecs:    dense   smooth      PW
     Min         120      96     26                 6900     4938     704
     Max         121      97     27                 6907     4943     708
     Sum        5761    4637   1265               331237   237129   33833


     Title: 
     SnI2                                                                       


     bravais-lattice index     =            1
     lattice parameter (alat)  =      14.4199  a.u.
     unit-cell volume          =    2998.4083 (a.u.)^3
     number of atoms/cell      =            6
     number of atomic types    =            2
     number of electrons       =        56.00
     number of Kohn-Sham states=           56
     kinetic-energy cutoff     =      70.0000  Ry
     charge density cutoff     =     350.0000  Ry
     scf convergence threshold =      1.0E-06
     mixing beta               =       0.3500
     number of iterations used =            8  plain     mixing
     Exchange-correlation= PBESOL
                           (   1   4  10   8   0   0   0)
     Non magnetic calculation with spin-orbit


     celldm(1)=  14.419944  celldm(2)=   0.000000  celldm(3)=   0.000000
     celldm(4)=   0.000000  celldm(5)=   0.000000  celldm(6)=   0.000000

     crystal axes: (cart. coord. in units of alat)
               a(1) = (   1.000000   0.000000   0.000000 )  
               a(2) = (   0.000000   1.000000   0.000000 )  
               a(3) = (   0.000000   0.000000   1.000000 )  

     reciprocal axes: (cart. coord. in units 2 pi/alat)
               b(1) = (  1.000000  0.000000  0.000000 )  
               b(2) = (  0.000000  1.000000  0.000000 )  
               b(3) = (  0.000000  0.000000  1.000000 )  


     PseudoPot. # 1 for Sn read from file:
     /scratch/cmalosso/degironcoli/pseudo/pseudo-usp/Sn.rel-pbesol-dn-rrkjus_psl.1.0.0.UPF
     MD5 check sum: c1cf6ea56b96a3656bdf0d1db379e093
     Pseudo is Ultrasoft + core correction, Zval = 14.0
     Generated using &quot;atomic&quot; code by A. Dal Corso  v.6.3
     Using radial grid of 1243 points, 10 beta functions with: 
                l(1) =   0
                l(2) =   0
                l(3) =   1
                l(4) =   1
                l(5) =   1
                l(6) =   1
                l(7) =   2
                l(8) =   2
                l(9) =   2
               l(10) =   2
     Q(r) pseudized with 0 coefficients 


     PseudoPot. # 2 for I  read from file:
     /scratch/cmalosso/degironcoli/pseudo/pseudo-usp/I.rel-pbesol-n-rrkjus_psl.1.0.0.UPF
     MD5 check sum: 0f96c6bfb1b448f280658f96eb466b08
     Pseudo is Ultrasoft + core correction, Zval =  7.0
     Generated using &quot;atomic&quot; code by A. Dal Corso  v.6.3
     Using radial grid of 1247 points, 10 beta functions with: 
                l(1) =   0
                l(2) =   0
                l(3) =   1
                l(4) =   1
                l(5) =   1
                l(6) =   1
                l(7) =   2
                l(8) =   2
                l(9) =   2
               l(10) =   2
     Q(r) pseudized with 0 coefficients 


     atomic species   valence    mass     pseudopotential
        Sn            14.00   118.70000     Sn( 1.00)
        I              7.00   126.90000     I ( 1.00)

     16 Sym. Ops., with inversion, found ( 8 have fractional translation)


                                    s                        frac. trans.

      isym =  1     identity                                     

 cryst.   s( 1) = (     1          0          0      )
                  (     0          1          0      )
                  (     0          0          1      )

 cart.    s( 1) = (  1.0000000  0.0000000  0.0000000 )
                  (  0.0000000  1.0000000  0.0000000 )
                  (  0.0000000  0.0000000  1.0000000 )


      isym =  2     180 deg rotation - cart. axis [0,0,1]        

 cryst.   s( 2) = (    -1          0          0      )
                  (     0         -1          0      )
                  (     0          0          1      )

 cart.    s( 2) = ( -1.0000000  0.0000000  0.0000000 )
                  (  0.0000000 -1.0000000  0.0000000 )
                  (  0.0000000  0.0000000  1.0000000 )


      isym =  3     180 deg rotation - cart. axis [0,1,0]        

 cryst.   s( 3) = (    -1          0          0      )    f =(  0.5000000 )
                  (     0          1          0      )       ( -0.5000000 )
                  (     0          0         -1      )       (  0.5000000 )

 cart.    s( 3) = ( -1.0000000  0.0000000  0.0000000 )    f =(  0.5000000 )
                  (  0.0000000  1.0000000  0.0000000 )       ( -0.5000000 )
                  (  0.0000000  0.0000000 -1.0000000 )       (  0.5000000 )


      isym =  4     180 deg rotation - cart. axis [1,0,0]        

 cryst.   s( 4) = (     1          0          0      )    f =( -0.5000000 )
                  (     0         -1          0      )       (  0.5000000 )
                  (     0          0         -1      )       (  0.5000000 )

 cart.    s( 4) = (  1.0000000  0.0000000  0.0000000 )    f =( -0.5000000 )
                  (  0.0000000 -1.0000000  0.0000000 )       (  0.5000000 )
                  (  0.0000000  0.0000000 -1.0000000 )       (  0.5000000 )


      isym =  5     180 deg rotation - cart. axis [1,1,0]        

 cryst.   s( 5) = (     0          1          0      )
                  (     1          0          0      )
                  (     0          0         -1      )

 cart.    s( 5) = (  0.0000000  1.0000000  0.0000000 )
                  (  1.0000000  0.0000000  0.0000000 )
                  (  0.0000000  0.0000000 -1.0000000 )


      isym =  6     180 deg rotation - cart. axis [1,-1,0]       

 cryst.   s( 6) = (     0         -1          0      )
                  (    -1          0          0      )
                  (     0          0         -1      )

 cart.    s( 6) = (  0.0000000 -1.0000000  0.0000000 )
                  ( -1.0000000  0.0000000  0.0000000 )
                  (  0.0000000  0.0000000 -1.0000000 )


      isym =  7      90 deg rotation - cart. axis [0,0,-1]       

 cryst.   s( 7) = (     0         -1          0      )    f =( -0.5000000 )
                  (     1          0          0      )       (  0.5000000 )
                  (     0          0          1      )       ( -0.5000000 )

 cart.    s( 7) = (  0.0000000  1.0000000  0.0000000 )    f =( -0.5000000 )
                  ( -1.0000000  0.0000000  0.0000000 )       (  0.5000000 )
                  (  0.0000000  0.0000000  1.0000000 )       ( -0.5000000 )


      isym =  8      90 deg rotation - cart. axis [0,0,1]        

 cryst.   s( 8) = (     0          1          0      )    f =(  0.5000000 )
                  (    -1          0          0      )       ( -0.5000000 )
                  (     0          0          1      )       ( -0.5000000 )

 cart.    s( 8) = (  0.0000000 -1.0000000  0.0000000 )    f =(  0.5000000 )
                  (  1.0000000  0.0000000  0.0000000 )       ( -0.5000000 )
                  (  0.0000000  0.0000000  1.0000000 )       ( -0.5000000 )


      isym =  9     inversion                                    

 cryst.   s( 9) = (    -1          0          0      )
                  (     0         -1          0      )
                  (     0          0         -1      )

 cart.    s( 9) = ( -1.0000000  0.0000000  0.0000000 )
                  (  0.0000000 -1.0000000  0.0000000 )
                  (  0.0000000  0.0000000 -1.0000000 )


      isym = 10     inv. 180 deg rotation - cart. axis [0,0,1]   

 cryst.   s(10) = (     1          0          0      )
                  (     0          1          0      )
                  (     0          0         -1      )

 cart.    s(10) = (  1.0000000  0.0000000  0.0000000 )
                  (  0.0000000  1.0000000  0.0000000 )
                  (  0.0000000  0.0000000 -1.0000000 )


      isym = 11     inv. 180 deg rotation - cart. axis [0,1,0]   

 cryst.   s(11) = (     1          0          0      )    f =( -0.5000000 )
                  (     0         -1          0      )       (  0.5000000 )
                  (     0          0          1      )       ( -0.5000000 )

 cart.    s(11) = (  1.0000000  0.0000000  0.0000000 )    f =( -0.5000000 )
                  (  0.0000000 -1.0000000  0.0000000 )       (  0.5000000 )
                  (  0.0000000  0.0000000  1.0000000 )       ( -0.5000000 )


      isym = 12     inv. 180 deg rotation - cart. axis [1,0,0]   

 cryst.   s(12) = (    -1          0          0      )    f =(  0.5000000 )
                  (     0          1          0      )       ( -0.5000000 )
                  (     0          0          1      )       ( -0.5000000 )

 cart.    s(12) = ( -1.0000000  0.0000000  0.0000000 )    f =(  0.5000000 )
                  (  0.0000000  1.0000000  0.0000000 )       ( -0.5000000 )
                  (  0.0000000  0.0000000  1.0000000 )       ( -0.5000000 )


      isym = 13     inv. 180 deg rotation - cart. axis [1,1,0]   

 cryst.   s(13) = (     0         -1          0      )
                  (    -1          0          0      )
                  (     0          0          1      )

 cart.    s(13) = (  0.0000000 -1.0000000  0.0000000 )
                  ( -1.0000000  0.0000000  0.0000000 )
                  (  0.0000000  0.0000000  1.0000000 )


      isym = 14     inv. 180 deg rotation - cart. axis [1,-1,0]  

 cryst.   s(14) = (     0          1          0      )
                  (     1          0          0      )
                  (     0          0          1      )

 cart.    s(14) = (  0.0000000  1.0000000  0.0000000 )
                  (  1.0000000  0.0000000  0.0000000 )
                  (  0.0000000  0.0000000  1.0000000 )


      isym = 15     inv.  90 deg rotation - cart. axis [0,0,-1]  

 cryst.   s(15) = (     0          1          0      )    f =(  0.5000000 )
                  (    -1          0          0      )       ( -0.5000000 )
                  (     0          0         -1      )       (  0.5000000 )

 cart.    s(15) = (  0.0000000 -1.0000000  0.0000000 )    f =(  0.5000000 )
                  (  1.0000000  0.0000000  0.0000000 )       ( -0.5000000 )
                  (  0.0000000  0.0000000 -1.0000000 )       (  0.5000000 )


      isym = 16     inv.  90 deg rotation - cart. axis [0,0,1]   

 cryst.   s(16) = (     0         -1          0      )    f =( -0.5000000 )
                  (     1          0          0      )       (  0.5000000 )
                  (     0          0         -1      )       (  0.5000000 )

 cart.    s(16) = (  0.0000000  1.0000000  0.0000000 )    f =( -0.5000000 )
                  ( -1.0000000  0.0000000  0.0000000 )       (  0.5000000 )
                  (  0.0000000  0.0000000 -1.0000000 )       (  0.5000000 )


     double point group D_4h(4/mmm)
     there are 14 classes and  4 irreducible representations
     the character table:

       E     -E    2C4   -2C4   C2    2C2' 2C2'' i     -i    2S4   -2S4   s_h 
                               -C2   -2C2' -2C2'                         -s_h 
G_6+   2.00 -2.00  1.41 -1.41  0.00  0.00  0.00  2.00 -2.00  1.41 -1.41  0.00
G_7+   2.00 -2.00 -1.41  1.41  0.00  0.00  0.00  2.00 -2.00 -1.41  1.41  0.00
G_6-   2.00 -2.00  1.41 -1.41  0.00  0.00  0.00 -2.00  2.00 -1.41  1.41  0.00
G_7-   2.00 -2.00 -1.41  1.41  0.00  0.00  0.00 -2.00  2.00  1.41 -1.41  0.00

        2s_v  2s_d
       -2s_v -2s_d
G_6+   0.00  0.00
G_7+   0.00  0.00
G_6-   0.00  0.00
G_7-   0.00  0.00

     the symmetry operations in each class and the name of the first element:

     E             1
          identity                                               
     -E           -1
          identity E                                             
     2C4           7    8
           90 deg rotation - cart. axis [0,0,-1]                 
     -2C4         -7   -8
           90 deg rotation - cart. axis [0,0,-1] E               
      C2  -C2      2   -2
          180 deg rotation - cart. axis [0,0,1]                  
      2C2'-2C2'    3   -3    4   -4
          180 deg rotation - cart. axis [0,1,0]                  
     2C2''-2C2'    5   -5   -6    6
          180 deg rotation - cart. axis [1,1,0]                  
     i             9
          inversion                                              
     -i           -9
          inversion E                                            
     2S4          15   16
          inv.  90 deg rotation - cart. axis [0,0,-1]            
     -2S4        -15  -16
          inv.  90 deg rotation - cart. axis [0,0,-1] E          
      s_h -s_h    10  -10
          inv. 180 deg rotation - cart. axis [0,0,1]             
      2s_v-2s_v   11  -11   12  -12
          inv. 180 deg rotation - cart. axis [0,1,0]             
      2s_d-2s_d   13  -13  -14   14
          inv. 180 deg rotation - cart. axis [1,1,0]             

   Cartesian axes

     site n.     atom                  positions (alat units)
         1           Sn  tau(   1) = (   0.0000000   0.0000000   0.0000000  )
         2           Sn  tau(   2) = (   0.5000000   0.5000000   0.5000000  )
         3           I   tau(   3) = (   0.2985210   0.2985210   0.0000000  )
         4           I   tau(   4) = (   0.7014790   0.7014790   0.0000000  )
         5           I   tau(   5) = (   0.7985210   0.2014790   0.5000000  )
         6           I   tau(   6) = (   0.2014790   0.7985210   0.5000000  )

   Crystallographic axes

     site n.     atom                  positions (cryst. coord.)
         1           Sn  tau(   1) = (  0.0000000  0.0000000  0.0000000  )
         2           Sn  tau(   2) = (  0.5000000  0.5000000  0.5000000  )
         3           I   tau(   3) = (  0.2985210  0.2985210  0.0000000  )
         4           I   tau(   4) = (  0.7014790  0.7014790  0.0000000  )
         5           I   tau(   5) = (  0.7985210  0.2014790  0.5000000  )
         6           I   tau(   6) = (  0.2014790  0.7985210  0.5000000  )

     number of k points=    40
                       cart. coord. in units 2pi/alat
        k(    1) = (   0.0714286   0.0714286   0.0714286), wk =   0.0233236
        k(    2) = (   0.0714286   0.0714286   0.2142857), wk =   0.0233236
        k(    3) = (   0.0714286   0.0714286   0.3571429), wk =   0.0233236
        k(    4) = (   0.0714286   0.0714286  -0.5000000), wk =   0.0116618
        k(    5) = (   0.0714286   0.2142857   0.2142857), wk =   0.0466472
        k(    6) = (   0.0714286   0.2142857   0.3571429), wk =   0.0466472
        k(    7) = (   0.0714286   0.2142857  -0.5000000), wk =   0.0233236
        k(    8) = (   0.0714286   0.3571429   0.3571429), wk =   0.0466472
        k(    9) = (   0.0714286   0.3571429  -0.5000000), wk =   0.0233236
        k(   10) = (   0.0714286  -0.5000000  -0.5000000), wk =   0.0116618
        k(   11) = (   0.2142857   0.2142857   0.2142857), wk =   0.0233236
        k(   12) = (   0.2142857   0.2142857   0.3571429), wk =   0.0233236
        k(   13) = (   0.2142857   0.2142857  -0.5000000), wk =   0.0116618
        k(   14) = (   0.2142857   0.3571429   0.3571429), wk =   0.0466472
        k(   15) = (   0.2142857   0.3571429  -0.5000000), wk =   0.0233236
        k(   16) = (   0.2142857  -0.5000000  -0.5000000), wk =   0.0116618
        k(   17) = (   0.3571429   0.3571429   0.3571429), wk =   0.0233236
        k(   18) = (   0.3571429   0.3571429  -0.5000000), wk =   0.0116618
        k(   19) = (   0.3571429  -0.5000000  -0.5000000), wk =   0.0116618
        k(   20) = (  -0.5000000  -0.5000000  -0.5000000), wk =   0.0029155
        k(   21) = (   0.0714286   0.2142857   0.0714286), wk =   0.0466472
        k(   22) = (   0.0714286   0.3571429   0.0714286), wk =   0.0466472
        k(   23) = (   0.0714286  -0.5000000   0.0714286), wk =   0.0233236
        k(   24) = (   0.2142857   0.2142857   0.0714286), wk =   0.0233236
        k(   25) = (   0.2142857   0.3571429   0.0714286), wk =   0.0466472
        k(   26) = (   0.3571429   0.0714286   0.2142857), wk =   0.0466472
        k(   27) = (   0.2142857  -0.5000000   0.0714286), wk =   0.0233236
        k(   28) = (  -0.5000000   0.0714286   0.2142857), wk =   0.0233236
        k(   29) = (   0.3571429   0.3571429   0.0714286), wk =   0.0233236
        k(   30) = (   0.3571429  -0.5000000   0.0714286), wk =   0.0233236
        k(   31) = (  -0.5000000   0.0714286   0.3571429), wk =   0.0233236
        k(   32) = (  -0.5000000  -0.5000000   0.0714286), wk =   0.0058309
        k(   33) = (   0.2142857   0.3571429   0.2142857), wk =   0.0466472
        k(   34) = (   0.2142857  -0.5000000   0.2142857), wk =   0.0233236
        k(   35) = (   0.3571429   0.3571429   0.2142857), wk =   0.0233236
        k(   36) = (   0.3571429  -0.5000000   0.2142857), wk =   0.0233236
        k(   37) = (  -0.5000000   0.2142857   0.3571429), wk =   0.0233236
        k(   38) = (  -0.5000000  -0.5000000   0.2142857), wk =   0.0058309
        k(   39) = (   0.3571429  -0.5000000   0.3571429), wk =   0.0233236
        k(   40) = (  -0.5000000  -0.5000000   0.3571429), wk =   0.0058309

                       cryst. coord.
        k(    1) = (   0.0714286   0.0714286   0.0714286), wk =   0.0233236
        k(    2) = (   0.0714286   0.0714286   0.2142857), wk =   0.0233236
        k(    3) = (   0.0714286   0.0714286   0.3571429), wk =   0.0233236
        k(    4) = (   0.0714286   0.0714286  -0.5000000), wk =   0.0116618
        k(    5) = (   0.0714286   0.2142857   0.2142857), wk =   0.0466472
        k(    6) = (   0.0714286   0.2142857   0.3571429), wk =   0.0466472
        k(    7) = (   0.0714286   0.2142857  -0.5000000), wk =   0.0233236
        k(    8) = (   0.0714286   0.3571429   0.3571429), wk =   0.0466472
        k(    9) = (   0.0714286   0.3571429  -0.5000000), wk =   0.0233236
        k(   10) = (   0.0714286  -0.5000000  -0.5000000), wk =   0.0116618
        k(   11) = (   0.2142857   0.2142857   0.2142857), wk =   0.0233236
        k(   12) = (   0.2142857   0.2142857   0.3571429), wk =   0.0233236
        k(   13) = (   0.2142857   0.2142857  -0.5000000), wk =   0.0116618
        k(   14) = (   0.2142857   0.3571429   0.3571429), wk =   0.0466472
        k(   15) = (   0.2142857   0.3571429  -0.5000000), wk =   0.0233236
        k(   16) = (   0.2142857  -0.5000000  -0.5000000), wk =   0.0116618
        k(   17) = (   0.3571429   0.3571429   0.3571429), wk =   0.0233236
        k(   18) = (   0.3571429   0.3571429  -0.5000000), wk =   0.0116618
        k(   19) = (   0.3571429  -0.5000000  -0.5000000), wk =   0.0116618
        k(   20) = (  -0.5000000  -0.5000000  -0.5000000), wk =   0.0029155
        k(   21) = (   0.0714286   0.2142857   0.0714286), wk =   0.0466472
        k(   22) = (   0.0714286   0.3571429   0.0714286), wk =   0.0466472
        k(   23) = (   0.0714286  -0.5000000   0.0714286), wk =   0.0233236
        k(   24) = (   0.2142857   0.2142857   0.0714286), wk =   0.0233236
        k(   25) = (   0.2142857   0.3571429   0.0714286), wk =   0.0466472
        k(   26) = (   0.3571429   0.0714286   0.2142857), wk =   0.0466472
        k(   27) = (   0.2142857  -0.5000000   0.0714286), wk =   0.0233236
        k(   28) = (  -0.5000000   0.0714286   0.2142857), wk =   0.0233236
        k(   29) = (   0.3571429   0.3571429   0.0714286), wk =   0.0233236
        k(   30) = (   0.3571429  -0.5000000   0.0714286), wk =   0.0233236
        k(   31) = (  -0.5000000   0.0714286   0.3571429), wk =   0.0233236
        k(   32) = (  -0.5000000  -0.5000000   0.0714286), wk =   0.0058309
        k(   33) = (   0.2142857   0.3571429   0.2142857), wk =   0.0466472
        k(   34) = (   0.2142857  -0.5000000   0.2142857), wk =   0.0233236
        k(   35) = (   0.3571429   0.3571429   0.2142857), wk =   0.0233236
        k(   36) = (   0.3571429  -0.5000000   0.2142857), wk =   0.0233236
        k(   37) = (  -0.5000000   0.2142857   0.3571429), wk =   0.0233236
        k(   38) = (  -0.5000000  -0.5000000   0.2142857), wk =   0.0058309
        k(   39) = (   0.3571429  -0.5000000   0.3571429), wk =   0.0233236
        k(   40) = (  -0.5000000  -0.5000000   0.3571429), wk =   0.0058309

     Dense  grid:   331237 G-vectors     FFT dimensions: (  90,  90,  90)

     Smooth grid:   237129 G-vectors     FFT dimensions: (  80,  80,  80)

     Dynamical RAM for                 wfc:       1.05 MB

     Dynamical RAM for     wfc (w. buffer):      43.23 MB

     Dynamical RAM for           str. fact:       0.21 MB

     Dynamical RAM for           local pot:       0.00 MB

     Dynamical RAM for          nlocal pot:       1.92 MB

     Dynamical RAM for                qrad:       7.86 MB

     Dynamical RAM for          rho,v,vnew:       2.75 MB

     Dynamical RAM for               rhoin:       0.92 MB

     Dynamical RAM for            rho*nmix:       6.74 MB

     Dynamical RAM for           G-vectors:       0.43 MB

     Dynamical RAM for          h,s,v(r/c):       0.57 MB

     Dynamical RAM for          <psi|beta>:       0.35 MB

     Dynamical RAM for                 psi:       2.11 MB

     Dynamical RAM for                hpsi:       2.11 MB

     Dynamical RAM for                spsi:       2.11 MB

     Dynamical RAM for      wfcinit/wfcrot:       2.03 MB

     Dynamical RAM for           addusdens:      64.66 MB

     Dynamical RAM for          addusforce:      65.40 MB

     Dynamical RAM for         addusstress:      66.14 MB

     Estimated static dynamical RAM per process >      65.37 MB

     Estimated max dynamical RAM per process >     131.51 MB

     Estimated total dynamical RAM >       6.16 GB

     Initial potential from superposition of free atoms

     starting charge   55.99772, renormalised to   56.00000
     Starting wfcs are   68 randomized atomic wfcs

     total cpu time spent up to now is       10.1 secs

     Self-consistent Calculation

     iteration #  1     ecut=    70.00 Ry     beta= 0.35
     Davidson diagonalization with overlap
     ethr =  1.00E-02,  avg # of iterations =  1.0

     total cpu time spent up to now is       28.3 secs

     total energy              =    -458.29953551 Ry
     estimated scf accuracy    <       0.58811076 Ry

     iteration #  2     ecut=    70.00 Ry     beta= 0.35
     Davidson diagonalization with overlap
     ethr =  1.05E-03,  avg # of iterations =  3.0

     total cpu time spent up to now is       51.3 secs

     total energy              =    -458.37654479 Ry
     estimated scf accuracy    <       0.06214783 Ry

     iteration #  3     ecut=    70.00 Ry     beta= 0.35
     Davidson diagonalization with overlap
     ethr =  1.11E-04,  avg # of iterations =  5.5

     total cpu time spent up to now is       80.8 secs

     total energy              =    -458.39030749 Ry
     estimated scf accuracy    <       0.04668784 Ry

     iteration #  4     ecut=    70.00 Ry     beta= 0.35
     Davidson diagonalization with overlap
     ethr =  8.34E-05,  avg # of iterations =  5.1

     total cpu time spent up to now is      108.7 secs

     total energy              =    -458.40044526 Ry
     estimated scf accuracy    <       0.03289791 Ry

     iteration #  5     ecut=    70.00 Ry     beta= 0.35
     Davidson diagonalization with overlap
     ethr =  5.87E-05,  avg # of iterations =  4.9

     total cpu time spent up to now is      133.3 secs

     total energy              =    -458.40697269 Ry
     estimated scf accuracy    <       0.00085111 Ry

     iteration #  6     ecut=    70.00 Ry     beta= 0.35
     Davidson diagonalization with overlap
     ethr =  1.52E-06,  avg # of iterations = 10.1

     total cpu time spent up to now is      172.2 secs

     total energy              =    -458.40524568 Ry
     estimated scf accuracy    <       0.00918743 Ry

     iteration #  7     ecut=    70.00 Ry     beta= 0.35
     Davidson diagonalization with overlap
     ethr =  1.52E-06,  avg # of iterations =  7.1

     total cpu time spent up to now is      205.2 secs

     total energy              =    -458.40745138 Ry
     estimated scf accuracy    <       0.00049588 Ry

     iteration #  8     ecut=    70.00 Ry     beta= 0.35
     Davidson diagonalization with overlap
     ethr =  8.86E-07,  avg # of iterations =  2.4

     total cpu time spent up to now is      225.6 secs

     total energy              =    -458.40748814 Ry
     estimated scf accuracy    <       0.00006173 Ry

     iteration #  9     ecut=    70.00 Ry     beta= 0.35
     Davidson diagonalization with overlap
     ethr =  1.10E-07,  avg # of iterations =  5.9

     total cpu time spent up to now is      253.7 secs

     total energy              =    -458.40751668 Ry
     estimated scf accuracy    <       0.00000172 Ry

     iteration # 10     ecut=    70.00 Ry     beta= 0.35
     Davidson diagonalization with overlap
     ethr =  3.07E-09,  avg # of iterations =  7.5

     total cpu time spent up to now is      284.6 secs

     total energy              =    -458.40751751 Ry
     estimated scf accuracy    <       0.00000236 Ry

     iteration # 11     ecut=    70.00 Ry     beta= 0.35
     Davidson diagonalization with overlap
     ethr =  3.07E-09,  avg # of iterations =  2.1

     total cpu time spent up to now is      303.6 secs

     End of self-consistent calculation

          k = 0.0714 0.0714 0.0714 ( 29603 PWs)   bands (ev):

   -23.2618 -23.2618 -23.2618 -23.2618 -23.1367 -23.1367 -23.1367 -23.1367
   -22.2416 -22.2416 -22.2415 -22.2415 -22.1324 -22.1324 -22.1324 -22.1324
   -22.0815 -22.0815 -22.0814 -22.0814 -11.6223 -11.6223 -11.5299 -11.5299
   -11.4791 -11.4791 -11.4759 -11.4759  -7.0784  -7.0784  -6.8734  -6.8734
    -2.6760  -2.6760  -2.5170  -2.5170  -2.1388  -2.1388  -2.0351  -2.0351
    -1.8905  -1.8905  -1.5271  -1.5271  -1.2292  -1.2292  -1.1265  -1.1265
    -1.1036  -1.1036  -1.0081  -1.0081  -0.9254  -0.9254  -0.8891  -0.8891

     occupation numbers 
     1.0000   1.0000   1.0000   1.0000   1.0000   1.0000   1.0000   1.0000
     1.0000   1.0000   1.0000   1.0000   1.0000   1.0000   1.0000   1.0000
     1.0000   1.0000   1.0000   1.0000   1.0000   1.0000   1.0000   1.0000
     1.0000   1.0000   1.0000   1.0000   1.0000   1.0000   1.0000   1.0000
     1.0000   1.0000   1.0000   1.0000   1.0000   1.0000   1.0000   1.0000
     1.0000   1.0000   1.0000   1.0000   1.0000   1.0000   1.0000   1.0000
     1.0000   1.0000   1.0000   1.0000   1.0000   1.0000   1.0000   1.0000

          k = 0.0714 0.0714 0.2143 ( 29656 PWs)   bands (ev):

   -23.2619 -23.2619 -23.2618 -23.2618 -23.1367 -23.1367 -23.1367 -23.1367
   -22.2416 -22.2416 -22.2416 -22.2416 -22.1324 -22.1324 -22.1324 -22.1324
   -22.0815 -22.0815 -22.0814 -22.0814 -11.6130 -11.6130 -11.5388 -11.5388
   -11.4790 -11.4790 -11.4757 -11.4757  -7.0634  -7.0634  -6.8993  -6.8993
    -2.6609  -2.6609  -2.5179  -2.5179  -2.1296  -2.1296  -2.0231  -2.0231
    -1.8687  -1.8687  -1.5431  -1.5431  -1.2300  -1.2300  -1.1582  -1.1582
    -1.1264  -1.1264  -1.0306  -1.0306  -0.9324  -0.9324  -0.9018  -0.9018

     occupation numbers 
     1.0000   1.0000   1.0000   1.0000   1.0000   1.0000   1.0000   1.0000
     1.0000   1.0000   1.0000   1.0000   1.0000   1.0000   1.0000   1.0000
     1.0000   1.0000   1.0000   1.0000   1.0000   1.0000   1.0000   1.0000
     1.0000   1.0000   1.0000   1.0000   1.0000   1.0000   1.0000   1.0000
     1.0000   1.0000   1.0000   1.0000   1.0000   1.0000   1.0000   1.0000
     1.0000   1.0000   1.0000   1.0000   1.0000   1.0000   1.0000   1.0000
     1.0000   1.0000   1.0000   1.0000   1.0000   1.0000   1.0000   1.0000

          k = 0.0714 0.0714 0.3571 ( 29659 PWs)   bands (ev):

   -23.2619 -23.2619 -23.2618 -23.2618 -23.1367 -23.1367 -23.1367 -23.1367
   -22.2416 -22.2416 -22.2416 -22.2416 -22.1324 -22.1324 -22.1324 -22.1324
   -22.0815 -22.0815 -22.0814 -22.0814 -11.5963 -11.5963 -11.5550 -11.5550
   -11.4789 -11.4789 -11.4756 -11.4756  -7.0334  -7.0334  -6.9425  -6.9425
    -2.6419  -2.6419  -2.5188  -2.5188  -2.1267  -2.1267  -2.0101  -2.0101
    -1.8118  -1.8118  -1.5901  -1.5901  -1.2228  -1.2228  -1.1937  -1.1937
    -1.1390  -1.1390  -1.0606  -1.0606  -0.9578  -0.9578  -0.9170  -0.9170

     occupation numbers 
     1.0000   1.0000   1.0000   1.0000   1.0000   1.0000   1.0000   1.0000
     1.0000   1.0000   1.0000   1.0000   1.0000   1.0000   1.0000   1.0000
     1.0000   1.0000   1.0000   1.0000   1.0000   1.0000   1.0000   1.0000
     1.0000   1.0000   1.0000   1.0000   1.0000   1.0000   1.0000   1.0000
     1.0000   1.0000   1.0000   1.0000   1.0000   1.0000   1.0000   1.0000
     1.0000   1.0000   1.0000   1.0000   1.0000   1.0000   1.0000   1.0000
     1.0000   1.0000   1.0000   1.0000   1.0000   1.0000   1.0000   1.0000

          k = 0.0714 0.0714-0.5000 ( 29664 PWs)   bands (ev):

   -23.2619 -23.2619 -23.2618 -23.2618 -23.1367 -23.1367 -23.1367 -23.1367
   -22.2416 -22.2416 -22.2416 -22.2416 -22.1324 -22.1324 -22.1324 -22.1324
   -22.0815 -22.0815 -22.0814 -22.0814 -11.5771 -11.5771 -11.5740 -11.5740
   -11.4789 -11.4789 -11.4755 -11.4755  -6.9931  -6.9931  -6.9887  -6.9887
    -2.6333  -2.6333  -2.5191  -2.5191  -2.1273  -2.1273  -2.0067  -2.0067
    -1.7600  -1.7600  -1.6357  -1.6357  -1.2223  -1.2223  -1.1989  -1.1989
    -1.1421  -1.1421  -1.0752  -1.0752  -0.9731  -0.9731  -0.9266  -0.9266

     occupation numbers 
     1.0000   1.0000   1.0000   1.0000   1.0000   1.0000   1.0000   1.0000
     1.0000   1.0000   1.0000   1.0000   1.0000   1.0000   1.0000   1.0000
     1.0000   1.0000   1.0000   1.0000   1.0000   1.0000   1.0000   1.0000
     1.0000   1.0000   1.0000   1.0000   1.0000   1.0000   1.0000   1.0000
     1.0000   1.0000   1.0000   1.0000   1.0000   1.0000   1.0000   1.0000
     1.0000   1.0000   1.0000   1.0000   1.0000   1.0000   1.0000   1.0000
     1.0000   1.0000   1.0000   1.0000   1.0000   1.0000   1.0000   1.0000

          k = 0.0714 0.2143 0.2143 ( 29660 PWs)   bands (ev):

   -23.2619 -23.2619 -23.2618 -23.2618 -23.1367 -23.1367 -23.1367 -23.1367
   -22.2416 -22.2416 -22.2416 -22.2416 -22.1325 -22.1325 -22.1324 -22.1324
   -22.0815 -22.0815 -22.0814 -22.0814 -11.6013 -11.6013 -11.5354 -11.5354
   -11.4905 -11.4905 -11.4801 -11.4801  -7.0441  -7.0441  -6.9120  -6.9120
    -2.7830  -2.7830  -2.6218  -2.6218  -2.1203  -2.1203  -1.9559  -1.9559
    -1.8244  -1.8244  -1.5642  -1.5642  -1.2368  -1.2368  -1.1727  -1.1727
    -1.0695  -1.0695  -0.9712  -0.9712  -0.9097  -0.9097  -0.7767  -0.7767

     occupation numbers 
     1.0000   1.0000   1.0000   1.0000   1.0000   1.0000   1.0000   1.0000
     1.0000   1.0000   1.0000   1.0000   1.0000   1.0000   1.0000   1.0000
     1.0000   1.0000   1.0000   1.0000   1.0000   1.0000   1.0000   1.0000
     1.0000   1.0000   1.0000   1.0000   1.0000   1.0000   1.0000   1.0000
     1.0000   1.0000   1.0000   1.0000   1.0000   1.0000   1.0000   1.0000
     1.0000   1.0000   1.0000   1.0000   1.0000   1.0000   1.0000   1.0000
     1.0000   1.0000   1.0000   1.0000   1.0000   1.0000   1.0000   1.0000

          k = 0.0714 0.2143 0.3571 ( 29634 PWs)   bands (ev):

   -23.2618 -23.2618 -23.2618 -23.2618 -23.1367 -23.1367 -23.1367 -23.1367
   -22.2416 -22.2416 -22.2416 -22.2416 -22.1324 -22.1324 -22.1324 -22.1324
   -22.0815 -22.0815 -22.0814 -22.0814 -11.5864 -11.5864 -11.5490 -11.5490
   -11.4903 -11.4903 -11.4807 -11.4807  -7.0213  -7.0213  -6.9477  -6.9477
    -2.7917  -2.7917  -2.6241  -2.6241  -2.0837  -2.0837  -1.9147  -1.9147
    -1.8294  -1.8294  -1.5835  -1.5835  -1.2471  -1.2471  -1.1763  -1.1763
    -1.0822  -1.0822  -0.9897  -0.9897  -0.9111  -0.9111  -0.7799  -0.7799

     occupation numbers 
     1.0000   1.0000   1.0000   1.0000   1.0000   1.0000   1.0000   1.0000
     1.0000   1.0000   1.0000   1.0000   1.0000   1.0000   1.0000   1.0000
     1.0000   1.0000   1.0000   1.0000   1.0000   1.0000   1.0000   1.0000
     1.0000   1.0000   1.0000   1.0000   1.0000   1.0000   1.0000   1.0000
     1.0000   1.0000   1.0000   1.0000   1.0000   1.0000   1.0000   1.0000
     1.0000   1.0000   1.0000   1.0000   1.0000   1.0000   1.0000   1.0000
     1.0000   1.0000   1.0000   1.0000   1.0000   1.0000   1.0000   1.0000

          k = 0.0714 0.2143-0.5000 ( 29636 PWs)   bands (ev):

   -23.2619 -23.2619 -23.2618 -23.2618 -23.1367 -23.1367 -23.1367 -23.1367
   -22.2416 -22.2416 -22.2416 -22.2416 -22.1324 -22.1324 -22.1324 -22.1324
   -22.0815 -22.0815 -22.0814 -22.0814 -11.5716 -11.5716 -11.5633 -11.5633
   -11.4900 -11.4900 -11.4810 -11.4810  -6.9923  -6.9923  -6.9824  -6.9824
    -2.7950  -2.7950  -2.6249  -2.6249  -2.0740  -2.0740  -1.8923  -1.8923
    -1.8292  -1.8292  -1.5897  -1.5897  -1.2512  -1.2512  -1.1772  -1.1772
    -1.0898  -1.0898  -1.0004  -1.0004  -0.9118  -0.9118  -0.7813  -0.7813

     occupation numbers 
     1.0000   1.0000   1.0000   1.0000   1.0000   1.0000   1.0000   1.0000
     1.0000   1.0000   1.0000   1.0000   1.0000   1.0000   1.0000   1.0000
     1.0000   1.0000   1.0000   1.0000   1.0000   1.0000   1.0000   1.0000
     1.0000   1.0000   1.0000   1.0000   1.0000   1.0000   1.0000   1.0000
     1.0000   1.0000   1.0000   1.0000   1.0000   1.0000   1.0000   1.0000
     1.0000   1.0000   1.0000   1.0000   1.0000   1.0000   1.0000   1.0000
     1.0000   1.0000   1.0000   1.0000   1.0000   1.0000   1.0000   1.0000

          k = 0.0714 0.3571 0.3571 ( 29670 PWs)   bands (ev):

   -23.2619 -23.2619 -23.2618 -23.2618 -23.1367 -23.1367 -23.1367 -23.1367
   -22.2416 -22.2416 -22.2416 -22.2416 -22.1325 -22.1325 -22.1324 -22.1324
   -22.0815 -22.0815 -22.0814 -22.0814 -11.5689 -11.5689 -11.5419 -11.5419
   -11.5043 -11.5043 -11.4920 -11.4920  -7.0010  -7.0010  -6.9594  -6.9594
    -2.8854  -2.8854  -2.7808  -2.7808  -2.0343  -2.0343  -1.9133  -1.9133
    -1.7917  -1.7917  -1.5852  -1.5852  -1.2540  -1.2540  -1.1923  -1.1923
    -0.9915  -0.9915  -0.9425  -0.9425  -0.7870  -0.7870  -0.6062  -0.6062

     occupation numbers 
     1.0000   1.0000   1.0000   1.0000   1.0000   1.0000   1.0000   1.0000
     1.0000   1.0000   1.0000   1.0000   1.0000   1.0000   1.0000   1.0000
     1.0000   1.0000   1.0000   1.0000   1.0000   1.0000   1.0000   1.0000
     1.0000   1.0000   1.0000   1.0000   1.0000   1.0000   1.0000   1.0000
     1.0000   1.0000   1.0000   1.0000   1.0000   1.0000   1.0000   1.0000
     1.0000   1.0000   1.0000   1.0000   1.0000   1.0000   1.0000   1.0000
     1.0000   1.0000   1.0000   1.0000   1.0000   1.0000   1.0000   1.0000

          k = 0.0714 0.3571-0.5000 ( 29672 PWs)   bands (ev):

   -23.2619 -23.2619 -23.2618 -23.2618 -23.1367 -23.1367 -23.1367 -23.1367
   -22.2416 -22.2416 -22.2416 -22.2416 -22.1324 -22.1324 -22.1324 -22.1324
   -22.0815 -22.0815 -22.0814 -22.0814 -11.5593 -11.5593 -11.5494 -11.5494
   -11.5042 -11.5042 -11.4937 -11.4937  -6.9876  -6.9876  -6.9782  -6.9782
    -2.8925  -2.8925  -2.7863  -2.7863  -2.0227  -2.0227  -1.8890  -1.8890
    -1.8055  -1.8055  -1.5824  -1.5824  -1.2466  -1.2466  -1.1819  -1.1819
    -0.9910  -0.9910  -0.9476  -0.9476  -0.7798  -0.7798  -0.6009  -0.6009

     occupation numbers 
     1.0000   1.0000   1.0000   1.0000   1.0000   1.0000   1.0000   1.0000
     1.0000   1.0000   1.0000   1.0000   1.0000   1.0000   1.0000   1.0000
     1.0000   1.0000   1.0000   1.0000   1.0000   1.0000   1.0000   1.0000
     1.0000   1.0000   1.0000   1.0000   1.0000   1.0000   1.0000   1.0000
     1.0000   1.0000   1.0000   1.0000   1.0000   1.0000   1.0000   1.0000
     1.0000   1.0000   1.0000   1.0000   1.0000   1.0000   1.0000   1.0000
     1.0000   1.0000   1.0000   1.0000   1.0000   1.0000   1.0000   1.0000

          k = 0.0714-0.5000-0.5000 ( 29684 PWs)   bands (ev):

   -23.2619 -23.2619 -23.2618 -23.2618 -23.1367 -23.1367 -23.1367 -23.1367
   -22.2416 -22.2416 -22.2416 -22.2416 -22.1324 -22.1324 -22.1324 -22.1324
   -22.0815 -22.0815 -22.0814 -22.0814 -11.5467 -11.5467 -11.5463 -11.5463
   -11.5070 -11.5070 -11.5069 -11.5069  -6.9843  -6.9843  -6.9776  -6.9776
    -2.9037  -2.9037  -2.8724  -2.8724  -2.0093  -2.0093  -1.9080  -1.9080
    -1.7778  -1.7778  -1.5887  -1.5887  -1.2323  -1.2323  -1.1951  -1.1951
    -0.9510  -0.9510  -0.9346  -0.9346  -0.6134  -0.6134  -0.5953  -0.5953

     occupation numbers 
     1.0000   1.0000   1.0000   1.0000   1.0000   1.0000   1.0000   1.0000
     1.0000   1.0000   1.0000   1.0000   1.0000   1.0000   1.0000   1.0000
     1.0000   1.0000   1.0000   1.0000   1.0000   1.0000   1.0000   1.0000
     1.0000   1.0000   1.0000   1.0000   1.0000   1.0000   1.0000   1.0000
     1.0000   1.0000   1.0000   1.0000   1.0000   1.0000   1.0000   1.0000
     1.0000   1.0000   1.0000   1.0000   1.0000   1.0000   1.0000   1.0000
     1.0000   1.0000   1.0000   1.0000   1.0000   1.0000   1.0000   1.0000

          k = 0.2143 0.2143 0.2143 ( 29647 PWs)   bands (ev):

   -23.2619 -23.2619 -23.2618 -23.2618 -23.1367 -23.1367 -23.1367 -23.1367
   -22.2416 -22.2416 -22.2416 -22.2416 -22.1324 -22.1324 -22.1324 -22.1324
   -22.0815 -22.0815 -22.0814 -22.0814 -11.5931 -11.5931 -11.5341 -11.5341
   -11.5004 -11.5004 -11.4796 -11.4796  -7.0329  -7.0329  -6.9255  -6.9255
    -2.8667  -2.8667  -2.5409  -2.5409  -2.1023  -2.1023  -1.9498  -1.9498
    -1.8625  -1.8625  -1.5870  -1.5870  -1.2692  -1.2692  -1.2099  -1.2099
    -1.1284  -1.1284  -0.9475  -0.9475  -0.8918  -0.8918  -0.6166  -0.6166

     occupation numbers 
     1.0000   1.0000   1.0000   1.0000   1.0000   1.0000   1.0000   1.0000
     1.0000   1.0000   1.0000   1.0000   1.0000   1.0000   1.0000   1.0000
     1.0000   1.0000   1.0000   1.0000   1.0000   1.0000   1.0000   1.0000
     1.0000   1.0000   1.0000   1.0000   1.0000   1.0000   1.0000   1.0000
     1.0000   1.0000   1.0000   1.0000   1.0000   1.0000   1.0000   1.0000
     1.0000   1.0000   1.0000   1.0000   1.0000   1.0000   1.0000   1.0000
     1.0000   1.0000   1.0000   1.0000   1.0000   1.0000   1.0000   1.0000

          k = 0.2143 0.2143 0.3571 ( 29648 PWs)   bands (ev):

   -23.2619 -23.2619 -23.2618 -23.2618 -23.1367 -23.1367 -23.1367 -23.1367
   -22.2416 -22.2416 -22.2416 -22.2416 -22.1324 -22.1324 -22.1324 -22.1324
   -22.0815 -22.0815 -22.0814 -22.0814 -11.5812 -11.5812 -11.5434 -11.5434
   -11.5021 -11.5021 -11.4794 -11.4794  -7.0166  -7.0166  -6.9548  -6.9548
    -2.8839  -2.8839  -2.5253  -2.5253  -2.1143  -2.1143  -1.8914  -1.8914
    -1.8690  -1.8690  -1.5888  -1.5888  -1.2875  -1.2875  -1.1992  -1.1992
    -1.1266  -1.1266  -0.9504  -0.9504  -0.8859  -0.8859  -0.6078  -0.6078

     occupation numbers 
     1.0000   1.0000   1.0000   1.0000   1.0000   1.0000   1.0000   1.0000
     1.0000   1.0000   1.0000   1.0000   1.0000   1.0000   1.0000   1.0000
     1.0000   1.0000   1.0000   1.0000   1.0000   1.0000   1.0000   1.0000
     1.0000   1.0000   1.0000   1.0000   1.0000   1.0000   1.0000   1.0000
     1.0000   1.0000   1.0000   1.0000   1.0000   1.0000   1.0000   1.0000
     1.0000   1.0000   1.0000   1.0000   1.0000   1.0000   1.0000   1.0000
     1.0000   1.0000   1.0000   1.0000   1.0000   1.0000   1.0000   1.0000

          k = 0.2143 0.2143-0.5000 ( 29662 PWs)   bands (ev):

   -23.2619 -23.2619 -23.2618 -23.2618 -23.1367 -23.1367 -23.1367 -23.1367
   -22.2416 -22.2416 -22.2416 -22.2416 -22.1324 -22.1324 -22.1324 -22.1324
   -22.0815 -22.0815 -22.0814 -22.0814 -11.5726 -11.5726 -11.5509 -11.5509
   -11.5028 -11.5028 -11.4794 -11.4794  -6.9987  -6.9987  -6.9784  -6.9784
    -2.8907  -2.8907  -2.5187  -2.5187  -2.1214  -2.1214  -1.8799  -1.8799
    -1.8607  -1.8607  -1.5793  -1.5793  -1.2980  -1.2980  -1.1943  -1.1943
    -1.1265  -1.1265  -0.9526  -0.9526  -0.8852  -0.8852  -0.6038  -0.6038

     occupation numbers 
     1.0000   1.0000   1.0000   1.0000   1.0000   1.0000   1.0000   1.0000
     1.0000   1.0000   1.0000   1.0000   1.0000   1.0000   1.0000   1.0000
     1.0000   1.0000   1.0000   1.0000   1.0000   1.0000   1.0000   1.0000
     1.0000   1.0000   1.0000   1.0000   1.0000   1.0000   1.0000   1.0000
     1.0000   1.0000   1.0000   1.0000   1.0000   1.0000   1.0000   1.0000
     1.0000   1.0000   1.0000   1.0000   1.0000   1.0000   1.0000   1.0000
     1.0000   1.0000   1.0000   1.0000   1.0000   1.0000   1.0000   1.0000

          k = 0.2143 0.3571 0.3571 ( 29633 PWs)   bands (ev):

   -23.2619 -23.2619 -23.2618 -23.2618 -23.1367 -23.1367 -23.1367 -23.1367
   -22.2416 -22.2416 -22.2415 -22.2415 -22.1324 -22.1324 -22.1324 -22.1324
   -22.0815 -22.0815 -22.0814 -22.0814 -11.5705 -11.5705 -11.5432 -11.5432
   -11.5065 -11.5065 -11.4855 -11.4855  -7.0053  -7.0053  -6.9691  -6.9691
    -2.8789  -2.8789  -2.6216  -2.6216  -2.0757  -2.0757  -1.9260  -1.9260
    -1.8280  -1.8280  -1.5937  -1.5937  -1.2955  -1.2955  -1.2265  -1.2265
    -1.0554  -1.0554  -0.9156  -0.9156  -0.8526  -0.8526  -0.6127  -0.6127

     occupation numbers 
     1.0000   1.0000   1.0000   1.0000   1.0000   1.0000   1.0000   1.0000
     1.0000   1.0000   1.0000   1.0000   1.0000   1.0000   1.0000   1.0000
     1.0000   1.0000   1.0000   1.0000   1.0000   1.0000   1.0000   1.0000
     1.0000   1.0000   1.0000   1.0000   1.0000   1.0000   1.0000   1.0000
     1.0000   1.0000   1.0000   1.0000   1.0000   1.0000   1.0000   1.0000
     1.0000   1.0000   1.0000   1.0000   1.0000   1.0000   1.0000   1.0000
     1.0000   1.0000   1.0000   1.0000   1.0000   1.0000   1.0000   1.0000

          k = 0.2143 0.3571-0.5000 ( 29650 PWs)   bands (ev):

   -23.2619 -23.2619 -23.2618 -23.2618 -23.1367 -23.1367 -23.1367 -23.1367
   -22.2416 -22.2416 -22.2416 -22.2416 -22.1324 -22.1324 -22.1324 -22.1324
   -22.0815 -22.0815 -22.0814 -22.0814 -11.5662 -11.5662 -11.5450 -11.5450
   -11.5083 -11.5083 -11.4858 -11.4858  -6.9984  -6.9984  -6.9817  -6.9817
    -2.8861  -2.8861  -2.6218  -2.6218  -2.0797  -2.0797  -1.9194  -1.9194
    -1.8283  -1.8283  -1.5768  -1.5768  -1.2888  -1.2888  -1.2104  -1.2104
    -1.0632  -1.0632  -0.9077  -0.9077  -0.8461  -0.8461  -0.6104  -0.6104

     occupation numbers 
     1.0000   1.0000   1.0000   1.0000   1.0000   1.0000   1.0000   1.0000
     1.0000   1.0000   1.0000   1.0000   1.0000   1.0000   1.0000   1.0000
     1.0000   1.0000   1.0000   1.0000   1.0000   1.0000   1.0000   1.0000
     1.0000   1.0000   1.0000   1.0000   1.0000   1.0000   1.0000   1.0000
     1.0000   1.0000   1.0000   1.0000   1.0000   1.0000   1.0000   1.0000
     1.0000   1.0000   1.0000   1.0000   1.0000   1.0000   1.0000   1.0000
     1.0000   1.0000   1.0000   1.0000   1.0000   1.0000   1.0000   1.0000

          k = 0.2143-0.5000-0.5000 ( 29664 PWs)   bands (ev):

   -23.2619 -23.2619 -23.2618 -23.2618 -23.1367 -23.1367 -23.1367 -23.1367
   -22.2416 -22.2416 -22.2416 -22.2416 -22.1324 -22.1324 -22.1324 -22.1324
   -22.0815 -22.0815 -22.0814 -22.0814 -11.5546 -11.5546 -11.5544 -11.5544
   -11.4981 -11.4981 -11.4980 -11.4980  -6.9935  -6.9935  -6.9881  -6.9881
    -2.7955  -2.7955  -2.7712  -2.7712  -2.0597  -2.0597  -1.9418  -1.9418
    -1.7939  -1.7939  -1.5815  -1.5815  -1.2630  -1.2630  -1.2248  -1.2248
    -0.9310  -0.9310  -0.9181  -0.9181  -0.7861  -0.7861  -0.7667  -0.7667

     occupation numbers 
     1.0000   1.0000   1.0000   1.0000   1.0000   1.0000   1.0000   1.0000
     1.0000   1.0000   1.0000   1.0000   1.0000   1.0000   1.0000   1.0000
     1.0000   1.0000   1.0000   1.0000   1.0000   1.0000   1.0000   1.0000
     1.0000   1.0000   1.0000   1.0000   1.0000   1.0000   1.0000   1.0000
     1.0000   1.0000   1.0000   1.0000   1.0000   1.0000   1.0000   1.0000
     1.0000   1.0000   1.0000   1.0000   1.0000   1.0000   1.0000   1.0000
     1.0000   1.0000   1.0000   1.0000   1.0000   1.0000   1.0000   1.0000

          k = 0.3571 0.3571 0.3571 ( 29659 PWs)   bands (ev):

   -23.2619 -23.2619 -23.2618 -23.2618 -23.1367 -23.1367 -23.1367 -23.1367
   -22.2416 -22.2416 -22.2416 -22.2416 -22.1324 -22.1324 -22.1324 -22.1324
   -22.0815 -22.0815 -22.0814 -22.0814 -11.5689 -11.5689 -11.5522 -11.5522
   -11.4988 -11.4988 -11.4843 -11.4843  -7.0069  -7.0069  -6.9849  -6.9849
    -2.7753  -2.7753  -2.5248  -2.5248  -2.1062  -2.1062  -1.9273  -1.9273
    -1.8885  -1.8885  -1.6227  -1.6227  -1.3362  -1.3362  -1.2672  -1.2672
    -1.0983  -1.0983  -0.9020  -0.9020  -0.8285  -0.8285  -0.7710  -0.7710

     occupation numbers 
     1.0000   1.0000   1.0000   1.0000   1.0000   1.0000   1.0000   1.0000
     1.0000   1.0000   1.0000   1.0000   1.0000   1.0000   1.0000   1.0000
     1.0000   1.0000   1.0000   1.0000   1.0000   1.0000   1.0000   1.0000
     1.0000   1.0000   1.0000   1.0000   1.0000   1.0000   1.0000   1.0000
     1.0000   1.0000   1.0000   1.0000   1.0000   1.0000   1.0000   1.0000
     1.0000   1.0000   1.0000   1.0000   1.0000   1.0000   1.0000   1.0000
     1.0000   1.0000   1.0000   1.0000   1.0000   1.0000   1.0000   1.0000

          k = 0.3571 0.3571-0.5000 ( 29662 PWs)   bands (ev):

   -23.2619 -23.2619 -23.2618 -23.2618 -23.1367 -23.1367 -23.1367 -23.1367
   -22.2416 -22.2416 -22.2416 -22.2416 -22.1324 -22.1324 -22.1324 -22.1324
   -22.0815 -22.0815 -22.0814 -22.0814 -11.5670 -11.5670 -11.5524 -11.5524
   -11.4999 -11.4999 -11.4842 -11.4842  -7.0055  -7.0055  -6.9924  -6.9924
    -2.7805  -2.7805  -2.5202  -2.5202  -2.1228  -2.1228  -1.9343  -1.9343
    -1.8857  -1.8857  -1.5994  -1.5994  -1.3261  -1.3261  -1.2393  -1.2393
    -1.1012  -1.1012  -0.8908  -0.8908  -0.8215  -0.8215  -0.7779  -0.7779

     occupation numbers 
     1.0000   1.0000   1.0000   1.0000   1.0000   1.0000   1.0000   1.0000
     1.0000   1.0000   1.0000   1.0000   1.0000   1.0000   1.0000   1.0000
     1.0000   1.0000   1.0000   1.0000   1.0000   1.0000   1.0000   1.0000
     1.0000   1.0000   1.0000   1.0000   1.0000   1.0000   1.0000   1.0000
     1.0000   1.0000   1.0000   1.0000   1.0000   1.0000   1.0000   1.0000
     1.0000   1.0000   1.0000   1.0000   1.0000   1.0000   1.0000   1.0000
     1.0000   1.0000   1.0000   1.0000   1.0000   1.0000   1.0000   1.0000

          k = 0.3571-0.5000-0.5000 ( 29692 PWs)   bands (ev):

   -23.2619 -23.2619 -23.2619 -23.2619 -23.1367 -23.1367 -23.1367 -23.1367
   -22.2416 -22.2416 -22.2416 -22.2416 -22.1325 -22.1325 -22.1325 -22.1325
   -22.0815 -22.0815 -22.0815 -22.0815 -11.5618 -11.5618 -11.5617 -11.5617
   -11.4896 -11.4896 -11.4896 -11.4896  -7.0044  -7.0044  -7.0015  -7.0015
    -2.6229  -2.6229  -2.6146  -2.6146  -2.1110  -2.1110  -1.9776  -1.9776
    -1.8487  -1.8487  -1.6375  -1.6375  -1.3114  -1.3114  -1.2621  -1.2621
    -1.0420  -1.0420  -1.0341  -1.0341  -0.8129  -0.8129  -0.7952  -0.7952

     occupation numbers 
     1.0000   1.0000   1.0000   1.0000   1.0000   1.0000   1.0000   1.0000
     1.0000   1.0000   1.0000   1.0000   1.0000   1.0000   1.0000   1.0000
     1.0000   1.0000   1.0000   1.0000   1.0000   1.0000   1.0000   1.0000
     1.0000   1.0000   1.0000   1.0000   1.0000   1.0000   1.0000   1.0000
     1.0000   1.0000   1.0000   1.0000   1.0000   1.0000   1.0000   1.0000
     1.0000   1.0000   1.0000   1.0000   1.0000   1.0000   1.0000   1.0000
     1.0000   1.0000   1.0000   1.0000   1.0000   1.0000   1.0000   1.0000

          k =-0.5000-0.5000-0.5000 ( 29464 PWs)   bands (ev):

   -23.2618 -23.2618 -23.2618 -23.2618 -23.1366 -23.1366 -23.1366 -23.1366
   -22.2415 -22.2415 -22.2415 -22.2415 -22.1324 -22.1324 -22.1324 -22.1324
   -22.0814 -22.0814 -22.0814 -22.0814 -11.5645 -11.5645 -11.5645 -11.5645
   -11.4863 -11.4863 -11.4863 -11.4863  -7.0083  -7.0083  -7.0083  -7.0083
    -2.5219  -2.5219  -2.5219  -2.5219  -2.0814  -2.0814  -2.0814  -2.0814
    -1.7863  -1.7863  -1.7863  -1.7863  -1.3083  -1.3083  -1.3083  -1.3083
    -1.0928  -1.0928  -1.0928  -1.0928  -0.7888  -0.7888  -0.7888  -0.7888

     occupation numbers 
     1.0000   1.0000   1.0000   1.0000   1.0000   1.0000   1.0000   1.0000
     1.0000   1.0000   1.0000   1.0000   1.0000   1.0000   1.0000   1.0000
     1.0000   1.0000   1.0000   1.0000   1.0000   1.0000   1.0000   1.0000
     1.0000   1.0000   1.0000   1.0000   1.0000   1.0000   1.0000   1.0000
     1.0000   1.0000   1.0000   1.0000   1.0000   1.0000   1.0000   1.0000
     1.0000   1.0000   1.0000   1.0000   1.0000   1.0000   1.0000   1.0000
     1.0000   1.0000   1.0000   1.0000   1.0000   1.0000   1.0000   1.0000

          k = 0.0714 0.2143 0.0714 ( 29656 PWs)   bands (ev):

   -23.2618 -23.2618 -23.2618 -23.2618 -23.1367 -23.1367 -23.1367 -23.1367
   -22.2416 -22.2416 -22.2416 -22.2416 -22.1325 -22.1325 -22.1324 -22.1324
   -22.0815 -22.0815 -22.0814 -22.0814 -11.6097 -11.6097 -11.5283 -11.5283
   -11.4904 -11.4904 -11.4797 -11.4797  -7.0553  -7.0553  -6.8904  -6.8904
    -2.7744  -2.7744  -2.6192  -2.6192  -2.1637  -2.1637  -1.9762  -1.9762
    -1.8199  -1.8199  -1.5449  -1.5449  -1.2317  -1.2317  -1.1691  -1.1691
    -1.0545  -1.0545  -0.9613  -0.9613  -0.9094  -0.9094  -0.7736  -0.7736

     occupation numbers 
     1.0000   1.0000   1.0000   1.0000   1.0000   1.0000   1.0000   1.0000
     1.0000   1.0000   1.0000   1.0000   1.0000   1.0000   1.0000   1.0000
     1.0000   1.0000   1.0000   1.0000   1.0000   1.0000   1.0000   1.0000
     1.0000   1.0000   1.0000   1.0000   1.0000   1.0000   1.0000   1.0000
     1.0000   1.0000   1.0000   1.0000   1.0000   1.0000   1.0000   1.0000
     1.0000   1.0000   1.0000   1.0000   1.0000   1.0000   1.0000   1.0000
     1.0000   1.0000   1.0000   1.0000   1.0000   1.0000   1.0000   1.0000

          k = 0.0714 0.3571 0.0714 ( 29659 PWs)   bands (ev):

   -23.2619 -23.2619 -23.2618 -23.2618 -23.1367 -23.1367 -23.1367 -23.1367
   -22.2416 -22.2416 -22.2416 -22.2416 -22.1324 -22.1324 -22.1324 -22.1324
   -22.0815 -22.0815 -22.0814 -22.0814 -11.5868 -11.5868 -11.5348 -11.5348
   -11.5002 -11.5002 -11.4873 -11.4873  -7.0150  -7.0150  -6.9231  -6.9231
    -2.8502  -2.8502  -2.7543  -2.7543  -2.1320  -2.1320  -1.9897  -1.9897
    -1.7323  -1.7323  -1.5838  -1.5838  -1.2607  -1.2607  -1.2230  -1.2230
    -1.0015  -1.0015  -0.9470  -0.9470  -0.7906  -0.7906  -0.6189  -0.6189

     occupation numbers 
     1.0000   1.0000   1.0000   1.0000   1.0000   1.0000   1.0000   1.0000
     1.0000   1.0000   1.0000   1.0000   1.0000   1.0000   1.0000   1.0000
     1.0000   1.0000   1.0000   1.0000   1.0000   1.0000   1.0000   1.0000
     1.0000   1.0000   1.0000   1.0000   1.0000   1.0000   1.0000   1.0000
     1.0000   1.0000   1.0000   1.0000   1.0000   1.0000   1.0000   1.0000
     1.0000   1.0000   1.0000   1.0000   1.0000   1.0000   1.0000   1.0000
     1.0000   1.0000   1.0000   1.0000   1.0000   1.0000   1.0000   1.0000

          k = 0.0714-0.5000 0.0714 ( 29664 PWs)   bands (ev):

   -23.2619 -23.2619 -23.2618 -23.2618 -23.1367 -23.1367 -23.1367 -23.1367
   -22.2416 -22.2416 -22.2416 -22.2416 -22.1324 -22.1324 -22.1324 -22.1324
   -22.0815 -22.0815 -22.0815 -22.0815 -11.5588 -11.5588 -11.5588 -11.5588
   -11.4960 -11.4960 -11.4960 -11.4960  -6.9681  -6.9681  -6.9666  -6.9666
    -2.8488  -2.8488  -2.8398  -2.8398  -2.0670  -2.0670  -2.0508  -2.0508
    -1.6755  -1.6755  -1.6261  -1.6261  -1.2608  -1.2608  -1.2572  -1.2572
    -0.9936  -0.9936  -0.9556  -0.9556  -0.6256  -0.6256  -0.6221  -0.6221

     occupation numbers 
     1.0000   1.0000   1.0000   1.0000   1.0000   1.0000   1.0000   1.0000
     1.0000   1.0000   1.0000   1.0000   1.0000   1.0000   1.0000   1.0000
     1.0000   1.0000   1.0000   1.0000   1.0000   1.0000   1.0000   1.0000
     1.0000   1.0000   1.0000   1.0000   1.0000   1.0000   1.0000   1.0000
     1.0000   1.0000   1.0000   1.0000   1.0000   1.0000   1.0000   1.0000
     1.0000   1.0000   1.0000   1.0000   1.0000   1.0000   1.0000   1.0000
     1.0000   1.0000   1.0000   1.0000   1.0000   1.0000   1.0000   1.0000

          k = 0.2143 0.2143 0.0714 ( 29660 PWs)   bands (ev):

   -23.2619 -23.2619 -23.2618 -23.2618 -23.1367 -23.1367 -23.1367 -23.1367
   -22.2416 -22.2416 -22.2416 -22.2416 -22.1325 -22.1325 -22.1324 -22.1324
   -22.0815 -22.0815 -22.0814 -22.0814 -11.6002 -11.6002 -11.5296 -11.5296
   -11.4985 -11.4985 -11.4798 -11.4798  -7.0406  -7.0406  -6.9074  -6.9074
    -2.8502  -2.8502  -2.5546  -2.5546  -2.1032  -2.1032  -1.9909  -1.9909
    -1.8607  -1.8607  -1.5678  -1.5678  -1.2659  -1.2659  -1.2191  -1.2191
    -1.1203  -1.1203  -0.9444  -0.9444  -0.9033  -0.9033  -0.6233  -0.6233

     occupation numbers 
     1.0000   1.0000   1.0000   1.0000   1.0000   1.0000   1.0000   1.0000
     1.0000   1.0000   1.0000   1.0000   1.0000   1.0000   1.0000   1.0000
     1.0000   1.0000   1.0000   1.0000   1.0000   1.0000   1.0000   1.0000
     1.0000   1.0000   1.0000   1.0000   1.0000   1.0000   1.0000   1.0000
     1.0000   1.0000   1.0000   1.0000   1.0000   1.0000   1.0000   1.0000
     1.0000   1.0000   1.0000   1.0000   1.0000   1.0000   1.0000   1.0000
     1.0000   1.0000   1.0000   1.0000   1.0000   1.0000   1.0000   1.0000

          k = 0.2143 0.3571 0.0714 ( 29634 PWs)   bands (ev):

   -23.2618 -23.2618 -23.2618 -23.2618 -23.1367 -23.1367 -23.1367 -23.1367
   -22.2416 -22.2416 -22.2416 -22.2416 -22.1324 -22.1324 -22.1324 -22.1324
   -22.0815 -22.0815 -22.0814 -22.0814 -11.5830 -11.5830 -11.5410 -11.5410
   -11.4994 -11.4994 -11.4846 -11.4846  -7.0127  -7.0127  -6.9381  -6.9381
    -2.8435  -2.8435  -2.6207  -2.6207  -2.0893  -2.0893  -1.9927  -1.9927
    -1.7947  -1.7947  -1.6074  -1.6074  -1.3216  -1.3216  -1.2801  -1.2801
    -1.0533  -1.0533  -0.9306  -0.9306  -0.8804  -0.8804  -0.6200  -0.6200

     occupation numbers 
     1.0000   1.0000   1.0000   1.0000   1.0000   1.0000   1.0000   1.0000
     1.0000   1.0000   1.0000   1.0000   1.0000   1.0000   1.0000   1.0000
     1.0000   1.0000   1.0000   1.0000   1.0000   1.0000   1.0000   1.0000
     1.0000   1.0000   1.0000   1.0000   1.0000   1.0000   1.0000   1.0000
     1.0000   1.0000   1.0000   1.0000   1.0000   1.0000   1.0000   1.0000
     1.0000   1.0000   1.0000   1.0000   1.0000   1.0000   1.0000   1.0000
     1.0000   1.0000   1.0000   1.0000   1.0000   1.0000   1.0000   1.0000

          k = 0.3571 0.0714 0.2143 ( 29634 PWs)   bands (ev):

   -23.2618 -23.2618 -23.2618 -23.2618 -23.1367 -23.1367 -23.1367 -23.1367
   -22.2416 -22.2416 -22.2416 -22.2416 -22.1324 -22.1324 -22.1324 -22.1324
   -22.0815 -22.0815 -22.0814 -22.0814 -11.5802 -11.5802 -11.5363 -11.5363
   -11.5026 -11.5026 -11.4891 -11.4891  -7.0109  -7.0109  -6.9371  -6.9371
    -2.8674  -2.8674  -2.7671  -2.7671  -2.0790  -2.0790  -1.9598  -1.9598
    -1.7592  -1.7592  -1.5873  -1.5873  -1.2597  -1.2597  -1.2098  -1.2098
    -1.0084  -1.0084  -0.9313  -0.9313  -0.7937  -0.7937  -0.6146  -0.6146

     occupation numbers 
     1.0000   1.0000   1.0000   1.0000   1.0000   1.0000   1.0000   1.0000
     1.0000   1.0000   1.0000   1.0000   1.0000   1.0000   1.0000   1.0000
     1.0000   1.0000   1.0000   1.0000   1.0000   1.0000   1.0000   1.0000
     1.0000   1.0000   1.0000   1.0000   1.0000   1.0000   1.0000   1.0000
     1.0000   1.0000   1.0000   1.0000   1.0000   1.0000   1.0000   1.0000
     1.0000   1.0000   1.0000   1.0000   1.0000   1.0000   1.0000   1.0000
     1.0000   1.0000   1.0000   1.0000   1.0000   1.0000   1.0000   1.0000

          k = 0.2143-0.5000 0.0714 ( 29636 PWs)   bands (ev):

   -23.2618 -23.2618 -23.2618 -23.2618 -23.1367 -23.1367 -23.1367 -23.1367
   -22.2416 -22.2416 -22.2416 -22.2416 -22.1324 -22.1324 -22.1324 -22.1324
   -22.0814 -22.0814 -22.0814 -22.0814 -11.5616 -11.5616 -11.5615 -11.5615
   -11.4925 -11.4925 -11.4925 -11.4925  -6.9767  -6.9767  -6.9755  -6.9755
    -2.7554  -2.7554  -2.7480  -2.7480  -2.0562  -2.0562  -2.0358  -2.0358
    -1.7040  -1.7040  -1.6562  -1.6562  -1.3279  -1.3279  -1.3248  -1.3248
    -0.9725  -0.9725  -0.9442  -0.9442  -0.7671  -0.7671  -0.7659  -0.7659

     occupation numbers 
     1.0000   1.0000   1.0000   1.0000   1.0000   1.0000   1.0000   1.0000
     1.0000   1.0000   1.0000   1.0000   1.0000   1.0000   1.0000   1.0000
     1.0000   1.0000   1.0000   1.0000   1.0000   1.0000   1.0000   1.0000
     1.0000   1.0000   1.0000   1.0000   1.0000   1.0000   1.0000   1.0000
     1.0000   1.0000   1.0000   1.0000   1.0000   1.0000   1.0000   1.0000
     1.0000   1.0000   1.0000   1.0000   1.0000   1.0000   1.0000   1.0000
     1.0000   1.0000   1.0000   1.0000   1.0000   1.0000   1.0000   1.0000

          k =-0.5000 0.0714 0.2143 ( 29636 PWs)   bands (ev):

   -23.2618 -23.2618 -23.2618 -23.2618 -23.1367 -23.1367 -23.1367 -23.1367
   -22.2416 -22.2416 -22.2416 -22.2416 -22.1324 -22.1324 -22.1324 -22.1324
   -22.0815 -22.0815 -22.0814 -22.0814 -11.5551 -11.5551 -11.5549 -11.5549
   -11.4993 -11.4993 -11.4993 -11.4993  -6.9743  -6.9743  -6.9701  -6.9701
    -2.8733  -2.8733  -2.8504  -2.8504  -2.0429  -2.0429  -1.9871  -1.9871
    -1.7341  -1.7341  -1.5981  -1.5981  -1.2481  -1.2481  -1.2467  -1.2467
    -1.0032  -1.0032  -0.9286  -0.9286  -0.6249  -0.6249  -0.6158  -0.6158

     occupation numbers 
     1.0000   1.0000   1.0000   1.0000   1.0000   1.0000   1.0000   1.0000
     1.0000   1.0000   1.0000   1.0000   1.0000   1.0000   1.0000   1.0000
     1.0000   1.0000   1.0000   1.0000   1.0000   1.0000   1.0000   1.0000
     1.0000   1.0000   1.0000   1.0000   1.0000   1.0000   1.0000   1.0000
     1.0000   1.0000   1.0000   1.0000   1.0000   1.0000   1.0000   1.0000
     1.0000   1.0000   1.0000   1.0000   1.0000   1.0000   1.0000   1.0000
     1.0000   1.0000   1.0000   1.0000   1.0000   1.0000   1.0000   1.0000

          k = 0.3571 0.3571 0.0714 ( 29670 PWs)   bands (ev):

   -23.2619 -23.2619 -23.2618 -23.2618 -23.1367 -23.1367 -23.1367 -23.1367
   -22.2416 -22.2416 -22.2416 -22.2416 -22.1325 -22.1325 -22.1324 -22.1324
   -22.0815 -22.0815 -22.0814 -22.0814 -11.5754 -11.5754 -11.5522 -11.5522
   -11.4945 -11.4945 -11.4846 -11.4846  -7.0044  -7.0044  -6.9624  -6.9624
    -2.7493  -2.7493  -2.5449  -2.5449  -2.0439  -2.0439  -1.9629  -1.9629
    -1.8668  -1.8668  -1.6552  -1.6552  -1.3788  -1.3788  -1.3542  -1.3542
    -1.1219  -1.1219  -0.9356  -0.9356  -0.8631  -0.8631  -0.7523  -0.7523

     occupation numbers 
     1.0000   1.0000   1.0000   1.0000   1.0000   1.0000   1.0000   1.0000
     1.0000   1.0000   1.0000   1.0000   1.0000   1.0000   1.0000   1.0000
     1.0000   1.0000   1.0000   1.0000   1.0000   1.0000   1.0000   1.0000
     1.0000   1.0000   1.0000   1.0000   1.0000   1.0000   1.0000   1.0000
     1.0000   1.0000   1.0000   1.0000   1.0000   1.0000   1.0000   1.0000
     1.0000   1.0000   1.0000   1.0000   1.0000   1.0000   1.0000   1.0000
     1.0000   1.0000   1.0000   1.0000   1.0000   1.0000   1.0000   1.0000

          k = 0.3571-0.5000 0.0714 ( 29672 PWs)   bands (ev):

   -23.2619 -23.2619 -23.2619 -23.2619 -23.1367 -23.1367 -23.1367 -23.1367
   -22.2416 -22.2416 -22.2416 -22.2416 -22.1325 -22.1325 -22.1325 -22.1325
   -22.0815 -22.0815 -22.0815 -22.0815 -11.5646 -11.5646 -11.5646 -11.5646
   -11.4885 -11.4885 -11.4885 -11.4885  -6.9873  -6.9873  -6.9866  -6.9866
    -2.6159  -2.6159  -2.6120  -2.6120  -2.0255  -2.0255  -1.9986  -1.9986
    -1.7722  -1.7722  -1.7304  -1.7304  -1.4041  -1.4041  -1.3961  -1.3961
    -1.0609  -1.0609  -1.0411  -1.0411  -0.8311  -0.8311  -0.8280  -0.8280

     occupation numbers 
     1.0000   1.0000   1.0000   1.0000   1.0000   1.0000   1.0000   1.0000
     1.0000   1.0000   1.0000   1.0000   1.0000   1.0000   1.0000   1.0000
     1.0000   1.0000   1.0000   1.0000   1.0000   1.0000   1.0000   1.0000
     1.0000   1.0000   1.0000   1.0000   1.0000   1.0000   1.0000   1.0000
     1.0000   1.0000   1.0000   1.0000   1.0000   1.0000   1.0000   1.0000
     1.0000   1.0000   1.0000   1.0000   1.0000   1.0000   1.0000   1.0000
     1.0000   1.0000   1.0000   1.0000   1.0000   1.0000   1.0000   1.0000

          k =-0.5000 0.0714 0.3571 ( 29672 PWs)   bands (ev):

   -23.2619 -23.2619 -23.2618 -23.2618 -23.1367 -23.1367 -23.1367 -23.1367
   -22.2416 -22.2416 -22.2416 -22.2416 -22.1324 -22.1324 -22.1324 -22.1324
   -22.0815 -22.0815 -22.0814 -22.0814 -11.5495 -11.5495 -11.5493 -11.5493
   -11.5043 -11.5043 -11.5043 -11.5043  -6.9813  -6.9813  -6.9752  -6.9752
    -2.8954  -2.8954  -2.8658  -2.8658  -2.0177  -2.0177  -1.9256  -1.9256
    -1.7720  -1.7720  -1.5891  -1.5891  -1.2380  -1.2380  -1.2152  -1.2152
    -0.9733  -0.9733  -0.9280  -0.9280  -0.6183  -0.6183  -0.6041  -0.6041

     occupation numbers 
     1.0000   1.0000   1.0000   1.0000   1.0000   1.0000   1.0000   1.0000
     1.0000   1.0000   1.0000   1.0000   1.0000   1.0000   1.0000   1.0000
     1.0000   1.0000   1.0000   1.0000   1.0000   1.0000   1.0000   1.0000
     1.0000   1.0000   1.0000   1.0000   1.0000   1.0000   1.0000   1.0000
     1.0000   1.0000   1.0000   1.0000   1.0000   1.0000   1.0000   1.0000
     1.0000   1.0000   1.0000   1.0000   1.0000   1.0000   1.0000   1.0000
     1.0000   1.0000   1.0000   1.0000   1.0000   1.0000   1.0000   1.0000

          k =-0.5000-0.5000 0.0714 ( 29684 PWs)   bands (ev):

   -23.2619 -23.2619 -23.2619 -23.2619 -23.1367 -23.1367 -23.1367 -23.1367
   -22.2416 -22.2416 -22.2416 -22.2416 -22.1325 -22.1325 -22.1325 -22.1325
   -22.0815 -22.0815 -22.0815 -22.0815 -11.5659 -11.5659 -11.5659 -11.5659
   -11.4868 -11.4868 -11.4868 -11.4868  -6.9917  -6.9917  -6.9917  -6.9917
    -2.5405  -2.5405  -2.5405  -2.5405  -1.9655  -1.9655  -1.9655  -1.9655
    -1.8305  -1.8305  -1.8305  -1.8305  -1.4262  -1.4262  -1.4262  -1.4262
    -1.1215  -1.1215  -1.1215  -1.1215  -0.8263  -0.8263  -0.8263  -0.8263

     occupation numbers 
     1.0000   1.0000   1.0000   1.0000   1.0000   1.0000   1.0000   1.0000
     1.0000   1.0000   1.0000   1.0000   1.0000   1.0000   1.0000   1.0000
     1.0000   1.0000   1.0000   1.0000   1.0000   1.0000   1.0000   1.0000
     1.0000   1.0000   1.0000   1.0000   1.0000   1.0000   1.0000   1.0000
     1.0000   1.0000   1.0000   1.0000   1.0000   1.0000   1.0000   1.0000
     1.0000   1.0000   1.0000   1.0000   1.0000   1.0000   1.0000   1.0000
     1.0000   1.0000   1.0000   1.0000   1.0000   1.0000   1.0000   1.0000

          k = 0.2143 0.3571 0.2143 ( 29648 PWs)   bands (ev):

   -23.2618 -23.2618 -23.2618 -23.2618 -23.1367 -23.1367 -23.1367 -23.1367
   -22.2416 -22.2416 -22.2416 -22.2416 -22.1324 -22.1324 -22.1324 -22.1324
   -22.0815 -22.0815 -22.0814 -22.0814 -11.5781 -11.5781 -11.5415 -11.5415
   -11.5025 -11.5025 -11.4850 -11.4850  -7.0109  -7.0109  -6.9504  -6.9504
    -2.8607  -2.8607  -2.6210  -2.6210  -2.0750  -2.0750  -1.9608  -1.9608
    -1.8118  -1.8118  -1.6137  -1.6137  -1.3075  -1.3075  -1.2578  -1.2578
    -1.0531  -1.0531  -0.9254  -0.9254  -0.8672  -0.8672  -0.6171  -0.6171

     occupation numbers 
     1.0000   1.0000   1.0000   1.0000   1.0000   1.0000   1.0000   1.0000
     1.0000   1.0000   1.0000   1.0000   1.0000   1.0000   1.0000   1.0000
     1.0000   1.0000   1.0000   1.0000   1.0000   1.0000   1.0000   1.0000
     1.0000   1.0000   1.0000   1.0000   1.0000   1.0000   1.0000   1.0000
     1.0000   1.0000   1.0000   1.0000   1.0000   1.0000   1.0000   1.0000
     1.0000   1.0000   1.0000   1.0000   1.0000   1.0000   1.0000   1.0000
     1.0000   1.0000   1.0000   1.0000   1.0000   1.0000   1.0000   1.0000

          k = 0.2143-0.5000 0.2143 ( 29662 PWs)   bands (ev):

   -23.2619 -23.2619 -23.2618 -23.2618 -23.1367 -23.1367 -23.1367 -23.1367
   -22.2416 -22.2416 -22.2416 -22.2416 -22.1324 -22.1324 -22.1324 -22.1324
   -22.0815 -22.0815 -22.0815 -22.0815 -11.5592 -11.5592 -11.5591 -11.5591
   -11.4943 -11.4943 -11.4943 -11.4943  -6.9830  -6.9830  -6.9797  -6.9797
    -2.7737  -2.7737  -2.7551  -2.7551  -2.0540  -2.0540  -1.9841  -1.9841
    -1.7638  -1.7638  -1.6238  -1.6238  -1.3009  -1.3009  -1.2992  -1.2992
    -0.9736  -0.9736  -0.9166  -0.9166  -0.7734  -0.7734  -0.7677  -0.7677

     occupation numbers 
     1.0000   1.0000   1.0000   1.0000   1.0000   1.0000   1.0000   1.0000
     1.0000   1.0000   1.0000   1.0000   1.0000   1.0000   1.0000   1.0000
     1.0000   1.0000   1.0000   1.0000   1.0000   1.0000   1.0000   1.0000
     1.0000   1.0000   1.0000   1.0000   1.0000   1.0000   1.0000   1.0000
     1.0000   1.0000   1.0000   1.0000   1.0000   1.0000   1.0000   1.0000
     1.0000   1.0000   1.0000   1.0000   1.0000   1.0000   1.0000   1.0000
     1.0000   1.0000   1.0000   1.0000   1.0000   1.0000   1.0000   1.0000

          k = 0.3571 0.3571 0.2143 ( 29633 PWs)   bands (ev):

   -23.2618 -23.2618 -23.2618 -23.2618 -23.1367 -23.1367 -23.1367 -23.1367
   -22.2416 -22.2416 -22.2416 -22.2416 -22.1324 -22.1324 -22.1324 -22.1324
   -22.0815 -22.0815 -22.0814 -22.0814 -11.5727 -11.5727 -11.5521 -11.5521
   -11.4963 -11.4963 -11.4845 -11.4845  -7.0062  -7.0062  -6.9717  -6.9717
    -2.7619  -2.7619  -2.5356  -2.5356  -2.0687  -2.0687  -1.9430  -1.9430
    -1.8731  -1.8731  -1.6577  -1.6577  -1.3575  -1.3575  -1.3187  -1.3187
    -1.1072  -1.1072  -0.9209  -0.9209  -0.8474  -0.8474  -0.7591  -0.7591

     occupation numbers 
     1.0000   1.0000   1.0000   1.0000   1.0000   1.0000   1.0000   1.0000
     1.0000   1.0000   1.0000   1.0000   1.0000   1.0000   1.0000   1.0000
     1.0000   1.0000   1.0000   1.0000   1.0000   1.0000   1.0000   1.0000
     1.0000   1.0000   1.0000   1.0000   1.0000   1.0000   1.0000   1.0000
     1.0000   1.0000   1.0000   1.0000   1.0000   1.0000   1.0000   1.0000
     1.0000   1.0000   1.0000   1.0000   1.0000   1.0000   1.0000   1.0000
     1.0000   1.0000   1.0000   1.0000   1.0000   1.0000   1.0000   1.0000

          k = 0.3571-0.5000 0.2143 ( 29650 PWs)   bands (ev):

   -23.2619 -23.2619 -23.2618 -23.2618 -23.1367 -23.1367 -23.1367 -23.1367
   -22.2416 -22.2416 -22.2416 -22.2416 -22.1324 -22.1324 -22.1324 -22.1324
   -22.0815 -22.0815 -22.0814 -22.0814 -11.5637 -11.5637 -11.5636 -11.5636
   -11.4889 -11.4889 -11.4888 -11.4888  -6.9936  -6.9936  -6.9917  -6.9917
    -2.6203  -2.6203  -2.6115  -2.6115  -2.0588  -2.0588  -1.9722  -1.9722
    -1.8255  -1.8255  -1.6926  -1.6926  -1.3663  -1.3663  -1.3647  -1.3647
    -1.0549  -1.0549  -1.0181  -1.0181  -0.8286  -0.8286  -0.8176  -0.8176

     occupation numbers 
     1.0000   1.0000   1.0000   1.0000   1.0000   1.0000   1.0000   1.0000
     1.0000   1.0000   1.0000   1.0000   1.0000   1.0000   1.0000   1.0000
     1.0000   1.0000   1.0000   1.0000   1.0000   1.0000   1.0000   1.0000
     1.0000   1.0000   1.0000   1.0000   1.0000   1.0000   1.0000   1.0000
     1.0000   1.0000   1.0000   1.0000   1.0000   1.0000   1.0000   1.0000
     1.0000   1.0000   1.0000   1.0000   1.0000   1.0000   1.0000   1.0000
     1.0000   1.0000   1.0000   1.0000   1.0000   1.0000   1.0000   1.0000

          k =-0.5000 0.2143 0.3571 ( 29650 PWs)   bands (ev):

   -23.2619 -23.2619 -23.2618 -23.2618 -23.1367 -23.1367 -23.1367 -23.1367
   -22.2416 -22.2416 -22.2416 -22.2416 -22.1324 -22.1324 -22.1324 -22.1324
   -22.0815 -22.0815 -22.0814 -22.0814 -11.5561 -11.5561 -11.5559 -11.5559
   -11.4968 -11.4968 -11.4968 -11.4968  -6.9903  -6.9903  -6.9855  -6.9855
    -2.7896  -2.7896  -2.7663  -2.7663  -2.0561  -2.0561  -1.9461  -1.9461
    -1.7946  -1.7946  -1.5944  -1.5944  -1.2750  -1.2750  -1.2517  -1.2517
    -0.9483  -0.9483  -0.9122  -0.9122  -0.7818  -0.7818  -0.7677  -0.7677

     occupation numbers 
     1.0000   1.0000   1.0000   1.0000   1.0000   1.0000   1.0000   1.0000
     1.0000   1.0000   1.0000   1.0000   1.0000   1.0000   1.0000   1.0000
     1.0000   1.0000   1.0000   1.0000   1.0000   1.0000   1.0000   1.0000
     1.0000   1.0000   1.0000   1.0000   1.0000   1.0000   1.0000   1.0000
     1.0000   1.0000   1.0000   1.0000   1.0000   1.0000   1.0000   1.0000
     1.0000   1.0000   1.0000   1.0000   1.0000   1.0000   1.0000   1.0000
     1.0000   1.0000   1.0000   1.0000   1.0000   1.0000   1.0000   1.0000

          k =-0.5000-0.5000 0.2143 ( 29664 PWs)   bands (ev):

   -23.2618 -23.2618 -23.2618 -23.2618 -23.1367 -23.1367 -23.1367 -23.1367
   -22.2416 -22.2416 -22.2416 -22.2416 -22.1324 -22.1324 -22.1324 -22.1324
   -22.0815 -22.0815 -22.0815 -22.0815 -11.5654 -11.5654 -11.5654 -11.5654
   -11.4866 -11.4866 -11.4866 -11.4866  -6.9977  -6.9977  -6.9977  -6.9977
    -2.5335  -2.5335  -2.5335  -2.5335  -2.0133  -2.0133  -2.0133  -2.0133
    -1.8089  -1.8089  -1.8089  -1.8089  -1.3961  -1.3961  -1.3961  -1.3961
    -1.0973  -1.0973  -1.0973  -1.0973  -0.8157  -0.8157  -0.8157  -0.8157

     occupation numbers 
     1.0000   1.0000   1.0000   1.0000   1.0000   1.0000   1.0000   1.0000
     1.0000   1.0000   1.0000   1.0000   1.0000   1.0000   1.0000   1.0000
     1.0000   1.0000   1.0000   1.0000   1.0000   1.0000   1.0000   1.0000
     1.0000   1.0000   1.0000   1.0000   1.0000   1.0000   1.0000   1.0000
     1.0000   1.0000   1.0000   1.0000   1.0000   1.0000   1.0000   1.0000
     1.0000   1.0000   1.0000   1.0000   1.0000   1.0000   1.0000   1.0000
     1.0000   1.0000   1.0000   1.0000   1.0000   1.0000   1.0000   1.0000

          k = 0.3571-0.5000 0.3571 ( 29662 PWs)   bands (ev):

   -23.2619 -23.2619 -23.2618 -23.2618 -23.1367 -23.1367 -23.1367 -23.1367
   -22.2416 -22.2416 -22.2416 -22.2416 -22.1324 -22.1324 -22.1324 -22.1324
   -22.0815 -22.0815 -22.0814 -22.0814 -11.5624 -11.5624 -11.5623 -11.5623
   -11.4894 -11.4894 -11.4893 -11.4893  -7.0011  -7.0011  -6.9984  -6.9984
    -2.6225  -2.6225  -2.6135  -2.6135  -2.0951  -2.0951  -1.9690  -1.9690
    -1.8499  -1.8499  -1.6538  -1.6538  -1.3298  -1.3298  -1.3004  -1.3004
    -1.0436  -1.0436  -1.0216  -1.0216  -0.8195  -0.8195  -0.8025  -0.8025

     occupation numbers 
     1.0000   1.0000   1.0000   1.0000   1.0000   1.0000   1.0000   1.0000
     1.0000   1.0000   1.0000   1.0000   1.0000   1.0000   1.0000   1.0000
     1.0000   1.0000   1.0000   1.0000   1.0000   1.0000   1.0000   1.0000
     1.0000   1.0000   1.0000   1.0000   1.0000   1.0000   1.0000   1.0000
     1.0000   1.0000   1.0000   1.0000   1.0000   1.0000   1.0000   1.0000
     1.0000   1.0000   1.0000   1.0000   1.0000   1.0000   1.0000   1.0000
     1.0000   1.0000   1.0000   1.0000   1.0000   1.0000   1.0000   1.0000

          k =-0.5000-0.5000 0.3571 ( 29692 PWs)   bands (ev):

   -23.2619 -23.2619 -23.2619 -23.2619 -23.1367 -23.1367 -23.1367 -23.1367
   -22.2416 -22.2416 -22.2416 -22.2416 -22.1325 -22.1325 -22.1325 -22.1325
   -22.0815 -22.0815 -22.0815 -22.0815 -11.5648 -11.5648 -11.5648 -11.5648
   -11.4864 -11.4864 -11.4864 -11.4864  -7.0050  -7.0050  -7.0050  -7.0050
    -2.5253  -2.5253  -2.5253  -2.5253  -2.0619  -2.0619  -2.0619  -2.0619
    -1.7920  -1.7920  -1.7920  -1.7920  -1.3408  -1.3408  -1.3408  -1.3408
    -1.0880  -1.0880  -1.0880  -1.0880  -0.7981  -0.7981  -0.7981  -0.7981

     occupation numbers 
     1.0000   1.0000   1.0000   1.0000   1.0000   1.0000   1.0000   1.0000
     1.0000   1.0000   1.0000   1.0000   1.0000   1.0000   1.0000   1.0000
     1.0000   1.0000   1.0000   1.0000   1.0000   1.0000   1.0000   1.0000
     1.0000   1.0000   1.0000   1.0000   1.0000   1.0000   1.0000   1.0000
     1.0000   1.0000   1.0000   1.0000   1.0000   1.0000   1.0000   1.0000
     1.0000   1.0000   1.0000   1.0000   1.0000   1.0000   1.0000   1.0000
     1.0000   1.0000   1.0000   1.0000   1.0000   1.0000   1.0000   1.0000

     highest occupied level (ev):    -0.5953

!    total energy              =    -458.40751680 Ry
     estimated scf accuracy    <       0.00000100 Ry

     The total energy is the sum of the following terms:
     one-electron contribution =    -256.49010509 Ry
     hartree contribution      =     145.41405134 Ry
     xc contribution           =    -157.07970272 Ry
     ewald contribution        =    -190.25176033 Ry

     convergence has been achieved in  11 iterations

     Forces acting on atoms (cartesian axes, Ry/au):

     atom    1 type  1   force =     0.00000000    0.00000000    0.00000000
     atom    2 type  1   force =     0.00000000    0.00000000   -0.00000000
     atom    3 type  2   force =    -0.01804647   -0.01804647    0.00000000
     atom    4 type  2   force =     0.01804647    0.01804647    0.00000000
     atom    5 type  2   force =    -0.01804647    0.01804647    0.00000000
     atom    6 type  2   force =     0.01804647   -0.01804647    0.00000000
     The non-local contrib.  to forces
     atom    1 type  1   force =     0.00000000    0.00000000    0.00000000
     atom    2 type  1   force =     0.00000000    0.00000000    0.00000000
     atom    3 type  2   force =    -0.04137726   -0.04137726   -0.00000000
     atom    4 type  2   force =     0.04137726    0.04137726   -0.00000000
     atom    5 type  2   force =    -0.04137726    0.04137726    0.00000000
     atom    6 type  2   force =     0.04137726   -0.04137726    0.00000000
     The ionic contribution  to forces
     atom    1 type  1   force =    -0.00000000   -0.00000000    0.00000000
     atom    2 type  1   force =    -0.00000000   -0.00000000    0.00000000
     atom    3 type  2   force =     1.38633658    1.38633658    0.00000000
     atom    4 type  2   force =    -1.38633658   -1.38633658   -0.00000000
     atom    5 type  2   force =     1.38633658   -1.38633658    0.00000000
     atom    6 type  2   force =    -1.38633658    1.38633658    0.00000000
     The local contribution  to forces
     atom    1 type  1   force =    -0.00000000   -0.00000000   -0.00000000
     atom    2 type  1   force =     0.00000000    0.00000000    0.00000000
     atom    3 type  2   force =    -1.36704316   -1.36704316   -0.00000000
     atom    4 type  2   force =     1.36704316    1.36704316   -0.00000000
     atom    5 type  2   force =    -1.36704316    1.36704316    0.00000000
     atom    6 type  2   force =     1.36704316   -1.36704316    0.00000000
     The core correction contribution to forces
     atom    1 type  1   force =     0.00000000    0.00000000    0.00000000
     atom    2 type  1   force =     0.00000000    0.00000000    0.00000000
     atom    3 type  2   force =     0.00391086    0.00391086    0.00000000
     atom    4 type  2   force =    -0.00391086   -0.00391086    0.00000000
     atom    5 type  2   force =     0.00391086   -0.00391086   -0.00000000
     atom    6 type  2   force =    -0.00391086    0.00391086    0.00000000
     The Hubbard contrib.    to forces
     atom    1 type  1   force =     0.00000000    0.00000000    0.00000000
     atom    2 type  1   force =     0.00000000    0.00000000    0.00000000
     atom    3 type  2   force =     0.00000000    0.00000000    0.00000000
     atom    4 type  2   force =     0.00000000    0.00000000    0.00000000
     atom    5 type  2   force =     0.00000000    0.00000000    0.00000000
     atom    6 type  2   force =     0.00000000    0.00000000    0.00000000
     The SCF correction term to forces
     atom    1 type  1   force =     0.00000000    0.00000000   -0.00000000
     atom    2 type  1   force =     0.00000000    0.00000000    0.00000000
     atom    3 type  2   force =     0.00012651    0.00012651    0.00000000
     atom    4 type  2   force =    -0.00012651   -0.00012651    0.00000000
     atom    5 type  2   force =     0.00012651   -0.00012651   -0.00000000
     atom    6 type  2   force =    -0.00012651    0.00012651   -0.00000000

     Total force =     0.051043     Total SCF correction =     0.000358


     Computing stress (Cartesian axis) and pressure

          total   stress  (Ry/bohr**3)                   (kbar)     P=      -27.28
  -0.00018777   0.00000000   0.00000000          -27.62        0.00        0.00
   0.00000000  -0.00018777   0.00000000            0.00      -27.62        0.00
   0.00000000   0.00000000  -0.00018073            0.00        0.00      -26.59

     kinetic stress (kbar)   4478.02      0.00      0.00
                                0.00   4478.02      0.00
                                0.00      0.00   4472.81

     local   stress (kbar)  -2714.61     -0.00     -0.00
                               -0.00  -2714.61      0.00
                               -0.00      0.00  -2198.95

     nonloc. stress (kbar)     69.55      0.00      0.00
                                0.00     69.55      0.00
                                0.00      0.00     54.32

     hartree stress (kbar)   2422.41     -0.00     -0.00
                               -0.00   2422.41     -0.00
                               -0.00     -0.00   2289.35

     exc-cor stress (kbar)   3792.41      0.00     -0.00
                                0.00   3792.41      0.00
                               -0.00      0.00   3791.42

     corecor stress (kbar)  -5084.41     -0.00     -0.00
                               -0.00  -5084.41     -0.00
                               -0.00     -0.00  -5083.56

     ewald   stress (kbar)  -2990.99     -0.00     -0.00
                               -0.00  -2990.99     -0.00
                               -0.00     -0.00  -3351.97

     hubbard stress (kbar)      0.00      0.00      0.00
                                0.00      0.00      0.00
                                0.00      0.00      0.00

     DFT-D   stress (kbar)      0.00      0.00      0.00
                                0.00      0.00      0.00
                                0.00      0.00      0.00

     XDM     stress (kbar)      0.00      0.00      0.00
                                0.00      0.00      0.00
                                0.00      0.00      0.00

     dft-nl  stress (kbar)      0.00      0.00      0.00
                                0.00      0.00      0.00
                                0.00      0.00      0.00

     TS-vdW  stress (kbar)      0.00      0.00      0.00
                                0.00      0.00      0.00
                                0.00      0.00      0.00



     Writing output data file ./SnI2.save/

     init_run     :     16.21s CPU      9.27s WALL (       1 calls)
     electrons    :    546.36s CPU    293.67s WALL (       1 calls)
     forces       :      7.06s CPU      5.07s WALL (       1 calls)
     stress       :     25.08s CPU     13.45s WALL (       1 calls)

     Called by init_run:
     wfcinit      :     14.59s CPU      8.01s WALL (       1 calls)
     wfcinit:atom :      0.12s CPU      0.06s WALL (      40 calls)
     wfcinit:wfcr :     13.87s CPU      7.46s WALL (      40 calls)
     potinit      :      0.26s CPU      0.16s WALL (       1 calls)
     hinit0       :      0.55s CPU      0.47s WALL (       1 calls)

     Called by electrons:
     c_bands      :    456.90s CPU    244.03s WALL (      11 calls)
     sum_band     :     80.52s CPU     43.45s WALL (      11 calls)
     v_of_rho     :      0.65s CPU      0.36s WALL (      12 calls)
     v_h          :      0.06s CPU      0.03s WALL (      12 calls)
     v_xc         :      0.68s CPU      0.38s WALL (      14 calls)
     newd         :      7.44s CPU      5.00s WALL (      12 calls)
     mix_rho      :      0.71s CPU      0.46s WALL (      11 calls)

     Called by c_bands:
     init_us_2    :      2.75s CPU      1.43s WALL (    1000 calls)
     cegterg      :    438.87s CPU    232.06s WALL (     440 calls)

     Called by sum_band:
     sum_band:wei :      0.00s CPU      0.00s WALL (      11 calls)
     sum_band:loo :     74.24s CPU     38.66s WALL (      11 calls)
     sum_band:buf :      0.40s CPU      0.33s WALL (     440 calls)
     sum_band:ini :      0.96s CPU      0.49s WALL (     440 calls)
     sum_band:cal :      5.84s CPU      2.94s WALL (     440 calls)
     sum_band:bec :     14.14s CPU      7.17s WALL (     440 calls)
     addusdens    :      5.81s CPU      4.48s WALL (      11 calls)
     addusd:skk   :      0.01s CPU      0.00s WALL (      22 calls)
     addusd:dgemm :      2.06s CPU      2.57s WALL (      22 calls)
     addusd:qvan2 :      3.61s CPU      1.83s WALL (      22 calls)

     Called by *egterg:
     cdiaghg      :     19.10s CPU     10.18s WALL (    2624 calls)
     cegterg:over :     20.19s CPU     10.93s WALL (    2184 calls)
     cegterg:upda :      8.20s CPU      4.15s WALL (    2184 calls)
     cegterg:last :     14.89s CPU      7.53s WALL (    1193 calls)
     h_psi        :    347.11s CPU    181.96s WALL (    2664 calls)
     s_psi        :     26.99s CPU     15.44s WALL (    2664 calls)
     g_psi        :      1.09s CPU      0.55s WALL (    2184 calls)

     Called by h_psi:
     h_psi:calbec :     19.85s CPU     10.01s WALL (    2664 calls)
     vloc_psi     :    302.32s CPU    158.30s WALL (    2664 calls)
     add_vuspsi   :     23.81s CPU     13.09s WALL (    2664 calls)

     General routines
     calbec       :     30.07s CPU     15.97s WALL (    3304 calls)
     fft          :      1.35s CPU      0.80s WALL (     281 calls)
     ffts         :      0.32s CPU      0.18s WALL (      92 calls)
     fftw         :    322.06s CPU    169.07s WALL (  366760 calls)
     interpolate  :      0.27s CPU      0.14s WALL (      48 calls)

     Parallel routines
     fft_scatt_xy :     17.46s CPU      8.92s WALL (  367133 calls)
     fft_scatt_yz :    225.96s CPU    119.94s WALL (  367133 calls)

     PWSCF        :  10m 0.33s CPU   5m30.02s WALL


   This run was terminated on:  11: 8: 6  31Jan2021            

=------------------------------------------------------------------------------=
   JOB DONE.
=------------------------------------------------------------------------------=
