
     Program PWSCF v.6.4.1 starts on 25Jan2021 at 10:17: 6 

     This program is part of the open-source Quantum ESPRESSO suite
     for quantum simulation of materials; please cite
         "P. Giannozzi et al., J. Phys.:Condens. Matter 21 395502 (2009);
         "P. Giannozzi et al., J. Phys.:Condens. Matter 29 465901 (2017);
          URL http://www.quantum-espresso.org", 
     in publications or presentations arising from this work. More details at
     http://www.quantum-espresso.org/quote

     Parallel version (MPI & OpenMP), running on      48 processor cores
     Number of MPI processes:                24
     Threads/MPI process:                     2

     MPI processes distributed on     1 nodes
     R & G space division:  proc/nbgrp/npool/nimage =      24
     Waiting for input...
     Reading input from standard input

     Current dimensions of program PWSCF are:
     Max number of different atomic species (ntypx) = 10
     Max number of k-points (npk) =  40000
     Max angular momentum in pseudopotentials (lmaxx) =  3
               file Cs.rel-pbesol-spn-kjpaw_psl.1.0.0.UPF: wavefunction(s)  5S 6S renormalized
               file I.rel-pbesol-n-kjpaw_psl.1.0.0.UPF: wavefunction(s)  5S renormalized

     Subspace diagonalization in iterative solution of the eigenvalue problem:
     one sub-group per band group will be used
     scalapack distributed-memory algorithm (size of sub-group:  3*  3 procs)

     Found symmetry operation: I + (  0.0000 -0.5000 -0.5000)
     This is a supercell, fractional translations are disabled
 
     Parallelization info
     --------------------
     sticks:   dense  smooth     PW     G-vecs:    dense   smooth      PW
     Min         123      82     23                 5061     2762     417
     Max         124      84     24                 5064     2763     422
     Sum        2965    1993    561               121481    66299   10059
 

     Title: 
     CsIsalt                                                                    


     bravais-lattice index     =            1
     lattice parameter (alat)  =       8.8160  a.u.
     unit-cell volume          =     685.1896 (a.u.)^3
     number of atoms/cell      =            8
     number of atomic types    =            2
     number of electrons       =        64.00
     number of Kohn-Sham states=           64
     kinetic-energy cutoff     =      80.0000  Ry
     charge density cutoff     =     480.0000  Ry
     convergence threshold     =      1.0E-06
     mixing beta               =       0.3500
     number of iterations used =            8  plain     mixing
     Exchange-correlation      = SLA PW PSX PSC ( 1  4 10  8 0 0)
     Non magnetic calculation with spin-orbit


     celldm(1)=   8.815973  celldm(2)=   0.000000  celldm(3)=   0.000000
     celldm(4)=   0.000000  celldm(5)=   0.000000  celldm(6)=   0.000000

     crystal axes: (cart. coord. in units of alat)
               a(1) = (   1.000000   0.000000   0.000000 )  
               a(2) = (   0.000000   1.000000   0.000000 )  
               a(3) = (   0.000000   0.000000   1.000000 )  

     reciprocal axes: (cart. coord. in units 2 pi/alat)
               b(1) = (  1.000000  0.000000  0.000000 )  
               b(2) = (  0.000000  1.000000  0.000000 )  
               b(3) = (  0.000000  0.000000  1.000000 )  


     PseudoPot. # 1 for Cs read from file:
     /marconi_scratch/userexternal/cmalosso/degironcoli/pseudo/Cs.rel-pbesol-spn-kjpaw_psl.1.0.0.UPF
     MD5 check sum: 2adfb289dd462649b099d7edbec69378
     Pseudo is Projector augmented-wave + core cor, Zval =  9.0
     Generated using "atomic" code by A. Dal Corso v.6.4.1
     Shape of augmentation charge: PSQ
     Using radial grid of 1251 points, 15 beta functions with: 
                l(1) =   0
                l(2) =   0
                l(3) =   0
                l(4) =   1
                l(5) =   1
                l(6) =   1
                l(7) =   1
                l(8) =   2
                l(9) =   2
               l(10) =   2
               l(11) =   2
               l(12) =   3
               l(13) =   3
               l(14) =   3
               l(15) =   3
     Q(r) pseudized with 0 coefficients 


     PseudoPot. # 2 for I  read from file:
     /marconi_scratch/userexternal/cmalosso/degironcoli/pseudo/I.rel-pbesol-n-kjpaw_psl.1.0.0.UPF
     MD5 check sum: 4478c427bd443f303eca1937a163b991
     Pseudo is Projector augmented-wave + core cor, Zval =  7.0
     Generated using "atomic" code by A. Dal Corso v.6.3
     Shape of augmentation charge: PSQ
     Using radial grid of 1247 points, 10 beta functions with: 
                l(1) =   0
                l(2) =   0
                l(3) =   1
                l(4) =   1
                l(5) =   1
                l(6) =   1
                l(7) =   2
                l(8) =   2
                l(9) =   2
               l(10) =   2
     Q(r) pseudized with 0 coefficients 


     atomic species   valence    mass     pseudopotential
        Cs             9.00   132.90000     Cs( 1.00)
        I              7.00   126.90000     I ( 1.00)

     48 Sym. Ops., with inversion, found


                                    s                        frac. trans.

      isym =  1     identity                                     

 cryst.   s( 1) = (     1          0          0      )
                  (     0          1          0      )
                  (     0          0          1      )

 cart.    s( 1) = (  1.0000000  0.0000000  0.0000000 )
                  (  0.0000000  1.0000000  0.0000000 )
                  (  0.0000000  0.0000000  1.0000000 )


      isym =  2     180 deg rotation - cart. axis [0,0,1]        

 cryst.   s( 2) = (    -1          0          0      )
                  (     0         -1          0      )
                  (     0          0          1      )

 cart.    s( 2) = ( -1.0000000  0.0000000  0.0000000 )
                  (  0.0000000 -1.0000000  0.0000000 )
                  (  0.0000000  0.0000000  1.0000000 )


      isym =  3     180 deg rotation - cart. axis [0,1,0]        

 cryst.   s( 3) = (    -1          0          0      )
                  (     0          1          0      )
                  (     0          0         -1      )

 cart.    s( 3) = ( -1.0000000  0.0000000  0.0000000 )
                  (  0.0000000  1.0000000  0.0000000 )
                  (  0.0000000  0.0000000 -1.0000000 )


      isym =  4     180 deg rotation - cart. axis [1,0,0]        

 cryst.   s( 4) = (     1          0          0      )
                  (     0         -1          0      )
                  (     0          0         -1      )

 cart.    s( 4) = (  1.0000000  0.0000000  0.0000000 )
                  (  0.0000000 -1.0000000  0.0000000 )
                  (  0.0000000  0.0000000 -1.0000000 )


      isym =  5     180 deg rotation - cart. axis [1,1,0]        

 cryst.   s( 5) = (     0          1          0      )
                  (     1          0          0      )
                  (     0          0         -1      )

 cart.    s( 5) = (  0.0000000  1.0000000  0.0000000 )
                  (  1.0000000  0.0000000  0.0000000 )
                  (  0.0000000  0.0000000 -1.0000000 )


      isym =  6     180 deg rotation - cart. axis [1,-1,0]       

 cryst.   s( 6) = (     0         -1          0      )
                  (    -1          0          0      )
                  (     0          0         -1      )

 cart.    s( 6) = (  0.0000000 -1.0000000  0.0000000 )
                  ( -1.0000000  0.0000000  0.0000000 )
                  (  0.0000000  0.0000000 -1.0000000 )


      isym =  7      90 deg rotation - cart. axis [0,0,-1]       

 cryst.   s( 7) = (     0         -1          0      )
                  (     1          0          0      )
                  (     0          0          1      )

 cart.    s( 7) = (  0.0000000  1.0000000  0.0000000 )
                  ( -1.0000000  0.0000000  0.0000000 )
                  (  0.0000000  0.0000000  1.0000000 )


      isym =  8      90 deg rotation - cart. axis [0,0,1]        

 cryst.   s( 8) = (     0          1          0      )
                  (    -1          0          0      )
                  (     0          0          1      )

 cart.    s( 8) = (  0.0000000 -1.0000000  0.0000000 )
                  (  1.0000000  0.0000000  0.0000000 )
                  (  0.0000000  0.0000000  1.0000000 )


      isym =  9     180 deg rotation - cart. axis [1,0,1]        

 cryst.   s( 9) = (     0          0          1      )
                  (     0         -1          0      )
                  (     1          0          0      )

 cart.    s( 9) = (  0.0000000  0.0000000  1.0000000 )
                  (  0.0000000 -1.0000000  0.0000000 )
                  (  1.0000000  0.0000000  0.0000000 )


      isym = 10     180 deg rotation - cart. axis [-1,0,1]       

 cryst.   s(10) = (     0          0         -1      )
                  (     0         -1          0      )
                  (    -1          0          0      )

 cart.    s(10) = (  0.0000000  0.0000000 -1.0000000 )
                  (  0.0000000 -1.0000000  0.0000000 )
                  ( -1.0000000  0.0000000  0.0000000 )


      isym = 11      90 deg rotation - cart. axis [0,1,0]        

 cryst.   s(11) = (     0          0         -1      )
                  (     0          1          0      )
                  (     1          0          0      )

 cart.    s(11) = (  0.0000000  0.0000000  1.0000000 )
                  (  0.0000000  1.0000000  0.0000000 )
                  ( -1.0000000  0.0000000  0.0000000 )


      isym = 12      90 deg rotation - cart. axis [0,-1,0]       

 cryst.   s(12) = (     0          0          1      )
                  (     0          1          0      )
                  (    -1          0          0      )

 cart.    s(12) = (  0.0000000  0.0000000 -1.0000000 )
                  (  0.0000000  1.0000000  0.0000000 )
                  (  1.0000000  0.0000000  0.0000000 )


      isym = 13     180 deg rotation - cart. axis [0,1,1]        

 cryst.   s(13) = (    -1          0          0      )
                  (     0          0          1      )
                  (     0          1          0      )

 cart.    s(13) = ( -1.0000000  0.0000000  0.0000000 )
                  (  0.0000000  0.0000000  1.0000000 )
                  (  0.0000000  1.0000000  0.0000000 )


      isym = 14     180 deg rotation - cart. axis [0,1,-1]       

 cryst.   s(14) = (    -1          0          0      )
                  (     0          0         -1      )
                  (     0         -1          0      )

 cart.    s(14) = ( -1.0000000  0.0000000  0.0000000 )
                  (  0.0000000  0.0000000 -1.0000000 )
                  (  0.0000000 -1.0000000  0.0000000 )


      isym = 15      90 deg rotation - cart. axis [-1,0,0]       

 cryst.   s(15) = (     1          0          0      )
                  (     0          0         -1      )
                  (     0          1          0      )

 cart.    s(15) = (  1.0000000  0.0000000  0.0000000 )
                  (  0.0000000  0.0000000  1.0000000 )
                  (  0.0000000 -1.0000000  0.0000000 )


      isym = 16      90 deg rotation - cart. axis [1,0,0]        

 cryst.   s(16) = (     1          0          0      )
                  (     0          0          1      )
                  (     0         -1          0      )

 cart.    s(16) = (  1.0000000  0.0000000  0.0000000 )
                  (  0.0000000  0.0000000 -1.0000000 )
                  (  0.0000000  1.0000000  0.0000000 )


      isym = 17     120 deg rotation - cart. axis [-1,-1,-1]     

 cryst.   s(17) = (     0          0          1      )
                  (     1          0          0      )
                  (     0          1          0      )

 cart.    s(17) = (  0.0000000  1.0000000  0.0000000 )
                  (  0.0000000  0.0000000  1.0000000 )
                  (  1.0000000  0.0000000  0.0000000 )


      isym = 18     120 deg rotation - cart. axis [-1,1,1]       

 cryst.   s(18) = (     0          0         -1      )
                  (    -1          0          0      )
                  (     0          1          0      )

 cart.    s(18) = (  0.0000000 -1.0000000  0.0000000 )
                  (  0.0000000  0.0000000  1.0000000 )
                  ( -1.0000000  0.0000000  0.0000000 )


      isym = 19     120 deg rotation - cart. axis [1,1,-1]       

 cryst.   s(19) = (     0          0         -1      )
                  (     1          0          0      )
                  (     0         -1          0      )

 cart.    s(19) = (  0.0000000  1.0000000  0.0000000 )
                  (  0.0000000  0.0000000 -1.0000000 )
                  ( -1.0000000  0.0000000  0.0000000 )


      isym = 20     120 deg rotation - cart. axis [1,-1,1]       

 cryst.   s(20) = (     0          0          1      )
                  (    -1          0          0      )
                  (     0         -1          0      )

 cart.    s(20) = (  0.0000000 -1.0000000  0.0000000 )
                  (  0.0000000  0.0000000 -1.0000000 )
                  (  1.0000000  0.0000000  0.0000000 )


      isym = 21     120 deg rotation - cart. axis [1,1,1]        

 cryst.   s(21) = (     0          1          0      )
                  (     0          0          1      )
                  (     1          0          0      )

 cart.    s(21) = (  0.0000000  0.0000000  1.0000000 )
                  (  1.0000000  0.0000000  0.0000000 )
                  (  0.0000000  1.0000000  0.0000000 )


      isym = 22     120 deg rotation - cart. axis [-1,1,-1]      

 cryst.   s(22) = (     0         -1          0      )
                  (     0          0         -1      )
                  (     1          0          0      )

 cart.    s(22) = (  0.0000000  0.0000000  1.0000000 )
                  ( -1.0000000  0.0000000  0.0000000 )
                  (  0.0000000 -1.0000000  0.0000000 )


      isym = 23     120 deg rotation - cart. axis [1,-1,-1]      

 cryst.   s(23) = (     0         -1          0      )
                  (     0          0          1      )
                  (    -1          0          0      )

 cart.    s(23) = (  0.0000000  0.0000000 -1.0000000 )
                  ( -1.0000000  0.0000000  0.0000000 )
                  (  0.0000000  1.0000000  0.0000000 )


      isym = 24     120 deg rotation - cart. axis [-1,-1,1]      

 cryst.   s(24) = (     0          1          0      )
                  (     0          0         -1      )
                  (    -1          0          0      )

 cart.    s(24) = (  0.0000000  0.0000000 -1.0000000 )
                  (  1.0000000  0.0000000  0.0000000 )
                  (  0.0000000 -1.0000000  0.0000000 )


      isym = 25     inversion                                    

 cryst.   s(25) = (    -1          0          0      )
                  (     0         -1          0      )
                  (     0          0         -1      )

 cart.    s(25) = ( -1.0000000  0.0000000  0.0000000 )
                  (  0.0000000 -1.0000000  0.0000000 )
                  (  0.0000000  0.0000000 -1.0000000 )


      isym = 26     inv. 180 deg rotation - cart. axis [0,0,1]   

 cryst.   s(26) = (     1          0          0      )
                  (     0          1          0      )
                  (     0          0         -1      )

 cart.    s(26) = (  1.0000000  0.0000000  0.0000000 )
                  (  0.0000000  1.0000000  0.0000000 )
                  (  0.0000000  0.0000000 -1.0000000 )


      isym = 27     inv. 180 deg rotation - cart. axis [0,1,0]   

 cryst.   s(27) = (     1          0          0      )
                  (     0         -1          0      )
                  (     0          0          1      )

 cart.    s(27) = (  1.0000000  0.0000000  0.0000000 )
                  (  0.0000000 -1.0000000  0.0000000 )
                  (  0.0000000  0.0000000  1.0000000 )


      isym = 28     inv. 180 deg rotation - cart. axis [1,0,0]   

 cryst.   s(28) = (    -1          0          0      )
                  (     0          1          0      )
                  (     0          0          1      )

 cart.    s(28) = ( -1.0000000  0.0000000  0.0000000 )
                  (  0.0000000  1.0000000  0.0000000 )
                  (  0.0000000  0.0000000  1.0000000 )


      isym = 29     inv. 180 deg rotation - cart. axis [1,1,0]   

 cryst.   s(29) = (     0         -1          0      )
                  (    -1          0          0      )
                  (     0          0          1      )

 cart.    s(29) = (  0.0000000 -1.0000000  0.0000000 )
                  ( -1.0000000  0.0000000  0.0000000 )
                  (  0.0000000  0.0000000  1.0000000 )


      isym = 30     inv. 180 deg rotation - cart. axis [1,-1,0]  

 cryst.   s(30) = (     0          1          0      )
                  (     1          0          0      )
                  (     0          0          1      )

 cart.    s(30) = (  0.0000000  1.0000000  0.0000000 )
                  (  1.0000000  0.0000000  0.0000000 )
                  (  0.0000000  0.0000000  1.0000000 )


      isym = 31     inv.  90 deg rotation - cart. axis [0,0,-1]  

 cryst.   s(31) = (     0          1          0      )
                  (    -1          0          0      )
                  (     0          0         -1      )

 cart.    s(31) = (  0.0000000 -1.0000000  0.0000000 )
                  (  1.0000000  0.0000000  0.0000000 )
                  (  0.0000000  0.0000000 -1.0000000 )


      isym = 32     inv.  90 deg rotation - cart. axis [0,0,1]   

 cryst.   s(32) = (     0         -1          0      )
                  (     1          0          0      )
                  (     0          0         -1      )

 cart.    s(32) = (  0.0000000  1.0000000  0.0000000 )
                  ( -1.0000000  0.0000000  0.0000000 )
                  (  0.0000000  0.0000000 -1.0000000 )


      isym = 33     inv. 180 deg rotation - cart. axis [1,0,1]   

 cryst.   s(33) = (     0          0         -1      )
                  (     0          1          0      )
                  (    -1          0          0      )

 cart.    s(33) = (  0.0000000  0.0000000 -1.0000000 )
                  (  0.0000000  1.0000000  0.0000000 )
                  ( -1.0000000  0.0000000  0.0000000 )


      isym = 34     inv. 180 deg rotation - cart. axis [-1,0,1]  

 cryst.   s(34) = (     0          0          1      )
                  (     0          1          0      )
                  (     1          0          0      )

 cart.    s(34) = (  0.0000000  0.0000000  1.0000000 )
                  (  0.0000000  1.0000000  0.0000000 )
                  (  1.0000000  0.0000000  0.0000000 )


      isym = 35     inv.  90 deg rotation - cart. axis [0,1,0]   

 cryst.   s(35) = (     0          0          1      )
                  (     0         -1          0      )
                  (    -1          0          0      )

 cart.    s(35) = (  0.0000000  0.0000000 -1.0000000 )
                  (  0.0000000 -1.0000000  0.0000000 )
                  (  1.0000000  0.0000000  0.0000000 )


      isym = 36     inv.  90 deg rotation - cart. axis [0,-1,0]  

 cryst.   s(36) = (     0          0         -1      )
                  (     0         -1          0      )
                  (     1          0          0      )

 cart.    s(36) = (  0.0000000  0.0000000  1.0000000 )
                  (  0.0000000 -1.0000000  0.0000000 )
                  ( -1.0000000  0.0000000  0.0000000 )


      isym = 37     inv. 180 deg rotation - cart. axis [0,1,1]   

 cryst.   s(37) = (     1          0          0      )
                  (     0          0         -1      )
                  (     0         -1          0      )

 cart.    s(37) = (  1.0000000  0.0000000  0.0000000 )
                  (  0.0000000  0.0000000 -1.0000000 )
                  (  0.0000000 -1.0000000  0.0000000 )


      isym = 38     inv. 180 deg rotation - cart. axis [0,1,-1]  

 cryst.   s(38) = (     1          0          0      )
                  (     0          0          1      )
                  (     0          1          0      )

 cart.    s(38) = (  1.0000000  0.0000000  0.0000000 )
                  (  0.0000000  0.0000000  1.0000000 )
                  (  0.0000000  1.0000000  0.0000000 )


      isym = 39     inv.  90 deg rotation - cart. axis [-1,0,0]  

 cryst.   s(39) = (    -1          0          0      )
                  (     0          0          1      )
                  (     0         -1          0      )

 cart.    s(39) = ( -1.0000000  0.0000000  0.0000000 )
                  (  0.0000000  0.0000000 -1.0000000 )
                  (  0.0000000  1.0000000  0.0000000 )


      isym = 40     inv.  90 deg rotation - cart. axis [1,0,0]   

 cryst.   s(40) = (    -1          0          0      )
                  (     0          0         -1      )
                  (     0          1          0      )

 cart.    s(40) = ( -1.0000000  0.0000000  0.0000000 )
                  (  0.0000000  0.0000000  1.0000000 )
                  (  0.0000000 -1.0000000  0.0000000 )


      isym = 41     inv. 120 deg rotation - cart. axis [-1,-1,-1]

 cryst.   s(41) = (     0          0         -1      )
                  (    -1          0          0      )
                  (     0         -1          0      )

 cart.    s(41) = (  0.0000000 -1.0000000  0.0000000 )
                  (  0.0000000  0.0000000 -1.0000000 )
                  ( -1.0000000  0.0000000  0.0000000 )


      isym = 42     inv. 120 deg rotation - cart. axis [-1,1,1]  

 cryst.   s(42) = (     0          0          1      )
                  (     1          0          0      )
                  (     0         -1          0      )

 cart.    s(42) = (  0.0000000  1.0000000  0.0000000 )
                  (  0.0000000  0.0000000 -1.0000000 )
                  (  1.0000000  0.0000000  0.0000000 )


      isym = 43     inv. 120 deg rotation - cart. axis [1,1,-1]  

 cryst.   s(43) = (     0          0          1      )
                  (    -1          0          0      )
                  (     0          1          0      )

 cart.    s(43) = (  0.0000000 -1.0000000  0.0000000 )
                  (  0.0000000  0.0000000  1.0000000 )
                  (  1.0000000  0.0000000  0.0000000 )


      isym = 44     inv. 120 deg rotation - cart. axis [1,-1,1]  

 cryst.   s(44) = (     0          0         -1      )
                  (     1          0          0      )
                  (     0          1          0      )

 cart.    s(44) = (  0.0000000  1.0000000  0.0000000 )
                  (  0.0000000  0.0000000  1.0000000 )
                  ( -1.0000000  0.0000000  0.0000000 )


      isym = 45     inv. 120 deg rotation - cart. axis [1,1,1]   

 cryst.   s(45) = (     0         -1          0      )
                  (     0          0         -1      )
                  (    -1          0          0      )

 cart.    s(45) = (  0.0000000  0.0000000 -1.0000000 )
                  ( -1.0000000  0.0000000  0.0000000 )
                  (  0.0000000 -1.0000000  0.0000000 )


      isym = 46     inv. 120 deg rotation - cart. axis [-1,1,-1] 

 cryst.   s(46) = (     0          1          0      )
                  (     0          0          1      )
                  (    -1          0          0      )

 cart.    s(46) = (  0.0000000  0.0000000 -1.0000000 )
                  (  1.0000000  0.0000000  0.0000000 )
                  (  0.0000000  1.0000000  0.0000000 )


      isym = 47     inv. 120 deg rotation - cart. axis [1,-1,-1] 

 cryst.   s(47) = (     0          1          0      )
                  (     0          0         -1      )
                  (     1          0          0      )

 cart.    s(47) = (  0.0000000  0.0000000  1.0000000 )
                  (  1.0000000  0.0000000  0.0000000 )
                  (  0.0000000 -1.0000000  0.0000000 )


      isym = 48     inv. 120 deg rotation - cart. axis [-1,-1,1] 

 cryst.   s(48) = (     0         -1          0      )
                  (     0          0          1      )
                  (     1          0          0      )

 cart.    s(48) = (  0.0000000  0.0000000  1.0000000 )
                  ( -1.0000000  0.0000000  0.0000000 )
                  (  0.0000000  1.0000000  0.0000000 )


     double point group O_h (m-3m) 
     there are 16 classes and  6 irreducible representations
     the character table:

       E     -E    8C3   -8C3   3C2  6C4   -6C4   6C2' i     -i    8S6   -8S6 
                               -3C2              -6C2'                        
G_6+   2.00 -2.00  1.00 -1.00  0.00  1.41 -1.41  0.00  2.00 -2.00  1.00 -1.00
G_7+   2.00 -2.00  1.00 -1.00  0.00 -1.41  1.41  0.00  2.00 -2.00  1.00 -1.00
G_8+   4.00 -4.00 -1.00  1.00  0.00  0.00  0.00  0.00  4.00 -4.00 -1.00  1.00
G_6-   2.00 -2.00  1.00 -1.00  0.00  1.41 -1.41  0.00 -2.00  2.00 -1.00  1.00
G_7-   2.00 -2.00  1.00 -1.00  0.00 -1.41  1.41  0.00 -2.00  2.00 -1.00  1.00
G_8-   4.00 -4.00 -1.00  1.00  0.00  0.00  0.00  0.00 -4.00  4.00  1.00 -1.00

        3s_h 6S4   -6S4   6s_d
       -3s_h             -6s_d
G_6+   0.00  1.41 -1.41  0.00
G_7+   0.00 -1.41  1.41  0.00
G_8+   0.00  0.00  0.00  0.00
G_6-   0.00 -1.41  1.41  0.00
G_7-   0.00  1.41 -1.41  0.00
G_8-   0.00  0.00  0.00  0.00

     the symmetry operations in each class and the name of the first element:

     E             1
          identity                                               
     -E           -1
          identity E                                             
     8C3          17   19   20   18   24   21   22   23
          120 deg rotation - cart. axis [-1,-1,-1]               
     -8C3        -17  -19  -20  -18  -24  -21  -22  -23
          120 deg rotation - cart. axis [-1,-1,-1] E             
      3C2 -3C2     2   -2    4   -4    3   -3
          180 deg rotation - cart. axis [0,0,1]                  
     6C4           7    8   15   16   12   11
           90 deg rotation - cart. axis [0,0,-1]                 
     -6C4         -7   -8  -15  -16  -12  -11
           90 deg rotation - cart. axis [0,0,-1] E               
      6C2'-6C2'    5   -5   -6    6   14  -13  -14   13   10   -9  -10    9
          180 deg rotation - cart. axis [1,1,0]                  
     i            25
          inversion                                              
     -i          -25
          inversion E                                            
     8S6          41   43   44   42   48   45   46   47
          inv. 120 deg rotation - cart. axis [-1,-1,-1]          
     -8S6        -41  -43  -44  -42  -48  -45  -46  -47
          inv. 120 deg rotation - cart. axis [-1,-1,-1] E        
      3s_h-3s_h   26  -26   28  -28   27  -27
          inv. 180 deg rotation - cart. axis [0,0,1]             
     6S4          31   32   39   40   36   35
          inv.  90 deg rotation - cart. axis [0,0,-1]            
     -6S4        -31  -32  -39  -40  -36  -35
          inv.  90 deg rotation - cart. axis [0,0,-1] E          
      6s_d-6s_d   29  -29  -30   30   38  -37  -38   37   34  -33  -34   33
          inv. 180 deg rotation - cart. axis [1,1,0]             

   Cartesian axes

     site n.     atom                  positions (alat units)
         1           Cs  tau(   1) = (   0.0000000   0.0000000   0.0000000  )
         2           Cs  tau(   2) = (   0.0000000   0.5000000   0.5000000  )
         3           Cs  tau(   3) = (   0.5000000   0.0000000   0.5000000  )
         4           Cs  tau(   4) = (   0.5000000   0.5000000   0.0000000  )
         5           I   tau(   5) = (   0.5000000   0.0000000   0.0000000  )
         6           I   tau(   6) = (   0.5000000   0.5000000   0.5000000  )
         7           I   tau(   7) = (   0.0000000   0.0000000   0.5000000  )
         8           I   tau(   8) = (   0.0000000   0.5000000   0.0000000  )

   Crystallographic axes

     site n.     atom                  positions (cryst. coord.)
         1           Cs  tau(   1) = (  0.0000000  0.0000000  0.0000000  )
         2           Cs  tau(   2) = (  0.0000000  0.5000000  0.5000000  )
         3           Cs  tau(   3) = (  0.5000000  0.0000000  0.5000000  )
         4           Cs  tau(   4) = (  0.5000000  0.5000000  0.0000000  )
         5           I   tau(   5) = (  0.5000000  0.0000000  0.0000000  )
         6           I   tau(   6) = (  0.5000000  0.5000000  0.5000000  )
         7           I   tau(   7) = (  0.0000000  0.0000000  0.5000000  )
         8           I   tau(   8) = (  0.0000000  0.5000000  0.0000000  )

     number of k points=    56
                       cart. coord. in units 2pi/alat
        k(    1) = (   0.0454545   0.0454545   0.0454545), wk =   0.0060105
        k(    2) = (   0.0454545   0.0454545   0.1363636), wk =   0.0180316
        k(    3) = (   0.0454545   0.0454545   0.2272727), wk =   0.0180316
        k(    4) = (   0.0454545   0.0454545   0.3181818), wk =   0.0180316
        k(    5) = (   0.0454545   0.0454545   0.4090909), wk =   0.0180316
        k(    6) = (   0.0454545   0.0454545  -0.5000000), wk =   0.0090158
        k(    7) = (   0.0454545   0.1363636   0.1363636), wk =   0.0180316
        k(    8) = (   0.0454545   0.1363636   0.2272727), wk =   0.0360631
        k(    9) = (   0.0454545   0.1363636   0.3181818), wk =   0.0360631
        k(   10) = (   0.0454545   0.1363636   0.4090909), wk =   0.0360631
        k(   11) = (   0.0454545   0.1363636  -0.5000000), wk =   0.0180316
        k(   12) = (   0.0454545   0.2272727   0.2272727), wk =   0.0180316
        k(   13) = (   0.0454545   0.2272727   0.3181818), wk =   0.0360631
        k(   14) = (   0.0454545   0.2272727   0.4090909), wk =   0.0360631
        k(   15) = (   0.0454545   0.2272727  -0.5000000), wk =   0.0180316
        k(   16) = (   0.0454545   0.3181818   0.3181818), wk =   0.0180316
        k(   17) = (   0.0454545   0.3181818   0.4090909), wk =   0.0360631
        k(   18) = (   0.0454545   0.3181818  -0.5000000), wk =   0.0180316
        k(   19) = (   0.0454545   0.4090909   0.4090909), wk =   0.0180316
        k(   20) = (   0.0454545   0.4090909  -0.5000000), wk =   0.0180316
        k(   21) = (   0.0454545  -0.5000000  -0.5000000), wk =   0.0045079
        k(   22) = (   0.1363636   0.1363636   0.1363636), wk =   0.0060105
        k(   23) = (   0.1363636   0.1363636   0.2272727), wk =   0.0180316
        k(   24) = (   0.1363636   0.1363636   0.3181818), wk =   0.0180316
        k(   25) = (   0.1363636   0.1363636   0.4090909), wk =   0.0180316
        k(   26) = (   0.1363636   0.1363636  -0.5000000), wk =   0.0090158
        k(   27) = (   0.1363636   0.2272727   0.2272727), wk =   0.0180316
        k(   28) = (   0.1363636   0.2272727   0.3181818), wk =   0.0360631
        k(   29) = (   0.1363636   0.2272727   0.4090909), wk =   0.0360631
        k(   30) = (   0.1363636   0.2272727  -0.5000000), wk =   0.0180316
        k(   31) = (   0.1363636   0.3181818   0.3181818), wk =   0.0180316
        k(   32) = (   0.1363636   0.3181818   0.4090909), wk =   0.0360631
        k(   33) = (   0.1363636   0.3181818  -0.5000000), wk =   0.0180316
        k(   34) = (   0.1363636   0.4090909   0.4090909), wk =   0.0180316
        k(   35) = (   0.1363636   0.4090909  -0.5000000), wk =   0.0180316
        k(   36) = (   0.1363636  -0.5000000  -0.5000000), wk =   0.0045079
        k(   37) = (   0.2272727   0.2272727   0.2272727), wk =   0.0060105
        k(   38) = (   0.2272727   0.2272727   0.3181818), wk =   0.0180316
        k(   39) = (   0.2272727   0.2272727   0.4090909), wk =   0.0180316
        k(   40) = (   0.2272727   0.2272727  -0.5000000), wk =   0.0090158
        k(   41) = (   0.2272727   0.3181818   0.3181818), wk =   0.0180316
        k(   42) = (   0.2272727   0.3181818   0.4090909), wk =   0.0360631
        k(   43) = (   0.2272727   0.3181818  -0.5000000), wk =   0.0180316
        k(   44) = (   0.2272727   0.4090909   0.4090909), wk =   0.0180316
        k(   45) = (   0.2272727   0.4090909  -0.5000000), wk =   0.0180316
        k(   46) = (   0.2272727  -0.5000000  -0.5000000), wk =   0.0045079
        k(   47) = (   0.3181818   0.3181818   0.3181818), wk =   0.0060105
        k(   48) = (   0.3181818   0.3181818   0.4090909), wk =   0.0180316
        k(   49) = (   0.3181818   0.3181818  -0.5000000), wk =   0.0090158
        k(   50) = (   0.3181818   0.4090909   0.4090909), wk =   0.0180316
        k(   51) = (   0.3181818   0.4090909  -0.5000000), wk =   0.0180316
        k(   52) = (   0.3181818  -0.5000000  -0.5000000), wk =   0.0045079
        k(   53) = (   0.4090909   0.4090909   0.4090909), wk =   0.0060105
        k(   54) = (   0.4090909   0.4090909  -0.5000000), wk =   0.0090158
        k(   55) = (   0.4090909  -0.5000000  -0.5000000), wk =   0.0045079
        k(   56) = (  -0.5000000  -0.5000000  -0.5000000), wk =   0.0007513

                       cryst. coord.
        k(    1) = (   0.0454545   0.0454545   0.0454545), wk =   0.0060105
        k(    2) = (   0.0454545   0.0454545   0.1363636), wk =   0.0180316
        k(    3) = (   0.0454545   0.0454545   0.2272727), wk =   0.0180316
        k(    4) = (   0.0454545   0.0454545   0.3181818), wk =   0.0180316
        k(    5) = (   0.0454545   0.0454545   0.4090909), wk =   0.0180316
        k(    6) = (   0.0454545   0.0454545  -0.5000000), wk =   0.0090158
        k(    7) = (   0.0454545   0.1363636   0.1363636), wk =   0.0180316
        k(    8) = (   0.0454545   0.1363636   0.2272727), wk =   0.0360631
        k(    9) = (   0.0454545   0.1363636   0.3181818), wk =   0.0360631
        k(   10) = (   0.0454545   0.1363636   0.4090909), wk =   0.0360631
        k(   11) = (   0.0454545   0.1363636  -0.5000000), wk =   0.0180316
        k(   12) = (   0.0454545   0.2272727   0.2272727), wk =   0.0180316
        k(   13) = (   0.0454545   0.2272727   0.3181818), wk =   0.0360631
        k(   14) = (   0.0454545   0.2272727   0.4090909), wk =   0.0360631
        k(   15) = (   0.0454545   0.2272727  -0.5000000), wk =   0.0180316
        k(   16) = (   0.0454545   0.3181818   0.3181818), wk =   0.0180316
        k(   17) = (   0.0454545   0.3181818   0.4090909), wk =   0.0360631
        k(   18) = (   0.0454545   0.3181818  -0.5000000), wk =   0.0180316
        k(   19) = (   0.0454545   0.4090909   0.4090909), wk =   0.0180316
        k(   20) = (   0.0454545   0.4090909  -0.5000000), wk =   0.0180316
        k(   21) = (   0.0454545  -0.5000000  -0.5000000), wk =   0.0045079
        k(   22) = (   0.1363636   0.1363636   0.1363636), wk =   0.0060105
        k(   23) = (   0.1363636   0.1363636   0.2272727), wk =   0.0180316
        k(   24) = (   0.1363636   0.1363636   0.3181818), wk =   0.0180316
        k(   25) = (   0.1363636   0.1363636   0.4090909), wk =   0.0180316
        k(   26) = (   0.1363636   0.1363636  -0.5000000), wk =   0.0090158
        k(   27) = (   0.1363636   0.2272727   0.2272727), wk =   0.0180316
        k(   28) = (   0.1363636   0.2272727   0.3181818), wk =   0.0360631
        k(   29) = (   0.1363636   0.2272727   0.4090909), wk =   0.0360631
        k(   30) = (   0.1363636   0.2272727  -0.5000000), wk =   0.0180316
        k(   31) = (   0.1363636   0.3181818   0.3181818), wk =   0.0180316
        k(   32) = (   0.1363636   0.3181818   0.4090909), wk =   0.0360631
        k(   33) = (   0.1363636   0.3181818  -0.5000000), wk =   0.0180316
        k(   34) = (   0.1363636   0.4090909   0.4090909), wk =   0.0180316
        k(   35) = (   0.1363636   0.4090909  -0.5000000), wk =   0.0180316
        k(   36) = (   0.1363636  -0.5000000  -0.5000000), wk =   0.0045079
        k(   37) = (   0.2272727   0.2272727   0.2272727), wk =   0.0060105
        k(   38) = (   0.2272727   0.2272727   0.3181818), wk =   0.0180316
        k(   39) = (   0.2272727   0.2272727   0.4090909), wk =   0.0180316
        k(   40) = (   0.2272727   0.2272727  -0.5000000), wk =   0.0090158
        k(   41) = (   0.2272727   0.3181818   0.3181818), wk =   0.0180316
        k(   42) = (   0.2272727   0.3181818   0.4090909), wk =   0.0360631
        k(   43) = (   0.2272727   0.3181818  -0.5000000), wk =   0.0180316
        k(   44) = (   0.2272727   0.4090909   0.4090909), wk =   0.0180316
        k(   45) = (   0.2272727   0.4090909  -0.5000000), wk =   0.0180316
        k(   46) = (   0.2272727  -0.5000000  -0.5000000), wk =   0.0045079
        k(   47) = (   0.3181818   0.3181818   0.3181818), wk =   0.0060105
        k(   48) = (   0.3181818   0.3181818   0.4090909), wk =   0.0180316
        k(   49) = (   0.3181818   0.3181818  -0.5000000), wk =   0.0090158
        k(   50) = (   0.3181818   0.4090909   0.4090909), wk =   0.0180316
        k(   51) = (   0.3181818   0.4090909  -0.5000000), wk =   0.0180316
        k(   52) = (   0.3181818  -0.5000000  -0.5000000), wk =   0.0045079
        k(   53) = (   0.4090909   0.4090909   0.4090909), wk =   0.0060105
        k(   54) = (   0.4090909   0.4090909  -0.5000000), wk =   0.0090158
        k(   55) = (   0.4090909  -0.5000000  -0.5000000), wk =   0.0045079
        k(   56) = (  -0.5000000  -0.5000000  -0.5000000), wk =   0.0007513

     Dense  grid:   121481 G-vectors     FFT dimensions: (  64,  64,  64)

     Smooth grid:    66299 G-vectors     FFT dimensions: (  54,  54,  54)

     Dynamical RAM for                 wfc:       0.67 MB

     Dynamical RAM for     wfc (w. buffer):      38.30 MB

     Dynamical RAM for           str. fact:       0.15 MB

     Dynamical RAM for           local pot:       0.00 MB

     Dynamical RAM for          nlocal pot:       2.04 MB

     Dynamical RAM for                qrad:      39.45 MB

     Dynamical RAM for          rho,v,vnew:       2.05 MB

     Dynamical RAM for               rhoin:       0.68 MB

     Dynamical RAM for            rho*nmix:       4.94 MB

     Dynamical RAM for           G-vectors:       0.31 MB

     Dynamical RAM for          h,s,v(r/c):       0.33 MB

     Dynamical RAM for          <psi|beta>:       0.76 MB

     Dynamical RAM for                 psi:       2.69 MB

     Dynamical RAM for                hpsi:       2.69 MB

     Dynamical RAM for                spsi:       2.69 MB

     Dynamical RAM for      wfcinit/wfcrot:       1.25 MB

     Dynamical RAM for           addusdens:     158.08 MB

     Dynamical RAM for          addusforce:     159.88 MB

     Dynamical RAM for         addusstress:     160.09 MB

     Estimated static dynamical RAM per process >      88.91 MB

     Estimated max dynamical RAM per process >     249.00 MB

     Estimated total dynamical RAM >       5.84 GB

     Initial potential from superposition of free atoms

     starting charge   63.84620, renormalised to   64.00000
     Starting wfcs are   72 randomized atomic wfcs
     Checking if some PAW data can be deallocated... 
       PAW data deallocated on   12 nodes for type:  1
       PAW data deallocated on   12 nodes for type:  2

     total cpu time spent up to now is       42.7 secs

     Self-consistent Calculation

     iteration #  1     ecut=    80.00 Ry     beta= 0.35
     Davidson diagonalization with overlap
     ethr =  1.00E-02,  avg # of iterations =  6.2

     Threshold (ethr) on eigenvalues was too large:
     Diagonalizing with lowered threshold

     Davidson diagonalization with overlap
     ethr =  1.55E-04,  avg # of iterations =  8.9

     total cpu time spent up to now is      514.7 secs

     total energy              =   -3131.15946644 Ry
     Harris-Foulkes estimate   =   -3131.19087347 Ry
     estimated scf accuracy    <       0.12061247 Ry

     iteration #  2     ecut=    80.00 Ry     beta= 0.35
     Davidson diagonalization with overlap
     ethr =  1.88E-04,  avg # of iterations =  1.0

     total cpu time spent up to now is      628.4 secs

     total energy              =   -3131.14935912 Ry
     Harris-Foulkes estimate   =   -3131.16286812 Ry
     estimated scf accuracy    <       0.04151230 Ry

     iteration #  3     ecut=    80.00 Ry     beta= 0.35
     Davidson diagonalization with overlap
     c_bands:  1 eigenvalues not converged
     ethr =  6.49E-05,  avg # of iterations =  5.1

     total cpu time spent up to now is      842.5 secs

     total energy              =   -3131.16722198 Ry
     Harris-Foulkes estimate   =   -3131.16470932 Ry
     estimated scf accuracy    <       0.00671186 Ry

     iteration #  4     ecut=    80.00 Ry     beta= 0.35
     Davidson diagonalization with overlap
     c_bands:  1 eigenvalues not converged
     c_bands:  1 eigenvalues not converged
     ethr =  1.05E-05,  avg # of iterations =  5.2

     total cpu time spent up to now is     1034.9 secs

     total energy              =   -3131.16503752 Ry
     Harris-Foulkes estimate   =   -3131.17023352 Ry
     estimated scf accuracy    <       0.01389820 Ry

     iteration #  5     ecut=    80.00 Ry     beta= 0.35
     Davidson diagonalization with overlap
     ethr =  1.05E-05,  avg # of iterations =  2.4

     total cpu time spent up to now is     1164.4 secs

     WARNING: integrated charge=    64.01060459, expected=    64.00000000

     total energy              =   -3131.16173349 Ry
     Harris-Foulkes estimate   =   -3131.16550906 Ry
     estimated scf accuracy    <       0.00660283 Ry

     iteration #  6     ecut=    80.00 Ry     beta= 0.35
     Davidson diagonalization with overlap
     ethr =  1.03E-05,  avg # of iterations =  4.3

     total cpu time spent up to now is     1374.4 secs

     WARNING: integrated charge=    64.00729172, expected=    64.00000000

     total energy              =   -3131.16419403 Ry
     Harris-Foulkes estimate   =   -3131.16456629 Ry
     estimated scf accuracy    <       0.00126025 Ry

     iteration #  7     ecut=    80.00 Ry     beta= 0.35
     Davidson diagonalization with overlap
     ethr =  1.97E-06,  avg # of iterations =  2.4

     total cpu time spent up to now is     1516.7 secs

     WARNING: integrated charge=    63.99742795, expected=    64.00000000

     total energy              =   -3131.16386621 Ry
     Harris-Foulkes estimate   =   -3131.16426628 Ry
     estimated scf accuracy    <       0.00069642 Ry

     iteration #  8     ecut=    80.00 Ry     beta= 0.35
     Davidson diagonalization with overlap
     c_bands:  1 eigenvalues not converged
     ethr =  1.09E-06,  avg # of iterations =  6.2

     total cpu time spent up to now is     1792.2 secs

     WARNING: integrated charge=    64.00834540, expected=    64.00000000

     total energy              =   -3131.16401269 Ry
     Harris-Foulkes estimate   =   -3131.16453137 Ry
     estimated scf accuracy    <       0.00094552 Ry

     iteration #  9     ecut=    80.00 Ry     beta= 0.35
     Davidson diagonalization with overlap
     ethr =  1.09E-06,  avg # of iterations =  6.3

     total cpu time spent up to now is     2070.0 secs

     WARNING: integrated charge=    64.00748314, expected=    64.00000000

     total energy              =   -3131.16448287 Ry
     Harris-Foulkes estimate   =   -3131.16451898 Ry
     estimated scf accuracy    <       0.00052642 Ry

     iteration # 10     ecut=    80.00 Ry     beta= 0.35
     Davidson diagonalization with overlap
     ethr =  8.23E-07,  avg # of iterations =  1.0

     total cpu time spent up to now is     2206.1 secs

     WARNING: integrated charge=    64.00111391, expected=    64.00000000

     total energy              =   -3131.16430956 Ry
     Harris-Foulkes estimate   =   -3131.16448719 Ry
     estimated scf accuracy    <       0.00047417 Ry

     iteration # 11     ecut=    80.00 Ry     beta= 0.35
     Davidson diagonalization with overlap
     ethr =  7.41E-07,  avg # of iterations =  2.1

     total cpu time spent up to now is     2344.2 secs

     WARNING: integrated charge=    63.99969915, expected=    64.00000000

     total energy              =   -3131.16430576 Ry
     Harris-Foulkes estimate   =   -3131.16433698 Ry
     estimated scf accuracy    <       0.00019498 Ry

     iteration # 12     ecut=    80.00 Ry     beta= 0.35
     Davidson diagonalization with overlap
     c_bands:  2 eigenvalues not converged
     ethr =  3.05E-07,  avg # of iterations =  7.1

     total cpu time spent up to now is     2553.5 secs

     WARNING: integrated charge=    64.00062818, expected=    64.00000000

     total energy              =   -3131.16435796 Ry
     Harris-Foulkes estimate   =   -3131.16436249 Ry
     estimated scf accuracy    <       0.00000629 Ry

     iteration # 13     ecut=    80.00 Ry     beta= 0.35
     Davidson diagonalization with overlap
     c_bands:  3 eigenvalues not converged
     c_bands:  2 eigenvalues not converged
     c_bands:  4 eigenvalues not converged
     ethr =  9.83E-09,  avg # of iterations =  6.9

     total cpu time spent up to now is     2808.3 secs

     WARNING: integrated charge=    64.00146292, expected=    64.00000000

     total energy              =   -3131.16437105 Ry
     Harris-Foulkes estimate   =   -3131.16436906 Ry
     estimated scf accuracy    <       0.00000135 Ry

     iteration # 14     ecut=    80.00 Ry     beta= 0.35
     Davidson diagonalization with overlap
     c_bands:  2 eigenvalues not converged
     c_bands:  2 eigenvalues not converged
     c_bands:  2 eigenvalues not converged
     c_bands:  2 eigenvalues not converged
     c_bands:  4 eigenvalues not converged
     c_bands:  2 eigenvalues not converged
     c_bands:  3 eigenvalues not converged
     c_bands:  2 eigenvalues not converged
     c_bands:  4 eigenvalues not converged
     c_bands:  2 eigenvalues not converged
     c_bands:  2 eigenvalues not converged
     c_bands:  2 eigenvalues not converged
     c_bands:  2 eigenvalues not converged
     c_bands:  2 eigenvalues not converged
     ethr =  2.11E-09,  avg # of iterations = 13.4

     total cpu time spent up to now is     3169.3 secs

     WARNING: integrated charge=    64.00021523, expected=    64.00000000

     total energy              =   -3131.16436492 Ry
     Harris-Foulkes estimate   =   -3131.16438852 Ry
     estimated scf accuracy    <       0.00009490 Ry

     iteration # 15     ecut=    80.00 Ry     beta= 0.35
     Davidson diagonalization with overlap
     c_bands:  2 eigenvalues not converged
     c_bands:  2 eigenvalues not converged
     c_bands:  2 eigenvalues not converged
     c_bands:  2 eigenvalues not converged
     c_bands:  1 eigenvalues not converged
     c_bands:  2 eigenvalues not converged
     c_bands:  4 eigenvalues not converged
     c_bands:  2 eigenvalues not converged
     c_bands:  2 eigenvalues not converged
     ethr =  2.11E-09,  avg # of iterations = 10.7

     total cpu time spent up to now is     3446.8 secs

     WARNING: integrated charge=    64.00011382, expected=    64.00000000

     total energy              =   -3131.16437021 Ry
     Harris-Foulkes estimate   =   -3131.16437240 Ry
     estimated scf accuracy    <       0.00001802 Ry

     iteration # 16     ecut=    80.00 Ry     beta= 0.35
     Davidson diagonalization with overlap
     c_bands:  2 eigenvalues not converged
     c_bands:  2 eigenvalues not converged
     c_bands:  2 eigenvalues not converged
     ethr =  2.11E-09,  avg # of iterations =  7.6

     total cpu time spent up to now is     3643.1 secs

     WARNING: integrated charge=    63.99997944, expected=    64.00000000

     total energy              =   -3131.16436904 Ry
     Harris-Foulkes estimate   =   -3131.16437067 Ry
     estimated scf accuracy    <       0.00000987 Ry

     iteration # 17     ecut=    80.00 Ry     beta= 0.35
     Davidson diagonalization with overlap
     c_bands:  2 eigenvalues not converged
     c_bands:  1 eigenvalues not converged
     ethr =  2.11E-09,  avg # of iterations =  7.4

     total cpu time spent up to now is     3836.9 secs

     WARNING: integrated charge=    63.99997445, expected=    64.00000000

     total energy              =   -3131.16436932 Ry
     Harris-Foulkes estimate   =   -3131.16436947 Ry
     estimated scf accuracy    <       0.00000201 Ry

     iteration # 18     ecut=    80.00 Ry     beta= 0.35
     Davidson diagonalization with overlap
     c_bands:  1 eigenvalues not converged
     ethr =  2.11E-09,  avg # of iterations =  1.5

     total cpu time spent up to now is     3938.0 secs

     WARNING: integrated charge=    63.99994403, expected=    64.00000000

     total energy              =   -3131.16436883 Ry
     Harris-Foulkes estimate   =   -3131.16436935 Ry
     estimated scf accuracy    <       0.00000168 Ry

     iteration # 19     ecut=    80.00 Ry     beta= 0.35
     Davidson diagonalization with overlap
     c_bands:  2 eigenvalues not converged
     ethr =  2.11E-09,  avg # of iterations =  7.4

     total cpu time spent up to now is     4124.5 secs

     End of self-consistent calculation

          k = 0.0455 0.0455 0.0455 (  8295 PWs)   bands (ev):

    -1.8977  -1.8977   2.5924   2.5924   2.5924   2.5924   2.5946   2.5946
     8.7969   8.7969   8.7969   8.7969   8.7971   8.7971  10.8546  10.8546
    10.8546  10.8546  10.8555  10.8555  12.3051  12.3051  12.3054  12.3054
    12.3060  12.3060  13.2509  13.2509  13.2515  13.2515  13.2518  13.2518
    14.6623  14.6623  16.1824  16.1824  16.6293  16.6293  18.8895  18.8895
    22.2959  22.2959  22.2959  22.2959  22.2959  22.2959  25.2054  25.2054
    26.5493  26.5493  26.6012  26.6012  26.8498  26.8498  26.8844  26.8844
    27.0389  27.0389  29.6169  29.6169  29.6170  29.6170  29.6177  29.6177

     occupation numbers 
     1.0000   1.0000   1.0000   1.0000   1.0000   1.0000   1.0000   1.0000
     1.0000   1.0000   1.0000   1.0000   1.0000   1.0000   1.0000   1.0000
     1.0000   1.0000   1.0000   1.0000   1.0000   1.0000   1.0000   1.0000
     1.0000   1.0000   1.0000   1.0000   1.0000   1.0000   1.0000   1.0000
     1.0000   1.0000   1.0000   1.0000   1.0000   1.0000   1.0000   1.0000
     1.0000   1.0000   1.0000   1.0000   1.0000   1.0000   1.0000   1.0000
     1.0000   1.0000   1.0000   1.0000   1.0000   1.0000   1.0000   1.0000
     1.0000   1.0000   1.0000   1.0000   1.0000   1.0000   1.0000   1.0000

          k = 0.0455 0.0455 0.1364 (  8303 PWs)   bands (ev):

    -1.7894  -1.7894   2.2192   2.2192   2.6450   2.6450   2.6464   2.6464
     8.8650   8.8650   8.8651   8.8651   9.1403   9.1403  10.0166  10.0166
    10.0173  10.0173  11.2046  11.2046  12.3172  12.3172  12.3172  12.3172
    12.4330  12.4330  13.3696  13.3696  14.1822  14.1822  14.1831  14.1831
    14.1979  14.1979  15.6764  15.6764  16.4882  16.4882  19.8116  19.8116
    22.3905  22.3905  22.7229  22.7229  22.7230  22.7230  24.4377  24.4377
    25.9765  25.9765  26.2528  26.2528  26.7326  26.7326  27.2713  27.2713
    27.4845  27.4845  28.6908  28.6908  28.6916  28.6916  29.3320  29.3320

     occupation numbers 
     1.0000   1.0000   1.0000   1.0000   1.0000   1.0000   1.0000   1.0000
     1.0000   1.0000   1.0000   1.0000   1.0000   1.0000   1.0000   1.0000
     1.0000   1.0000   1.0000   1.0000   1.0000   1.0000   1.0000   1.0000
     1.0000   1.0000   1.0000   1.0000   1.0000   1.0000   1.0000   1.0000
     1.0000   1.0000   1.0000   1.0000   1.0000   1.0000   1.0000   1.0000
     1.0000   1.0000   1.0000   1.0000   1.0000   1.0000   1.0000   1.0000
     1.0000   1.0000   1.0000   1.0000   1.0000   1.0000   1.0000   1.0000
     1.0000   1.0000   1.0000   1.0000   1.0000   1.0000   1.0000   1.0000

          k = 0.0455 0.0455 0.2273 (  8289 PWs)   bands (ev):

    -1.5736  -1.5736   1.6226   1.6226   2.7391   2.7391   2.7406   2.7406
     8.8083   8.8083   8.8085   8.8085   9.4309   9.4309   9.4314   9.4314
     9.6220   9.6220  11.8931  11.8931  11.9483  11.9483  11.9483  11.9483
    12.7302  12.7302  13.4601  13.4601  13.6198  13.6198  15.1575  15.1575
    15.6029  15.6029  15.6038  15.6038  16.1205  16.1205  20.9967  20.9967
    22.5793  22.5793  22.9309  22.9309  23.5133  23.5133  23.5133  23.5133
    25.5132  25.5132  26.0205  26.0205  26.8631  26.8631  26.9920  26.9920
    26.9928  26.9928  28.0581  28.0581  28.2782  28.2782  28.8429  28.8429

     occupation numbers 
     1.0000   1.0000   1.0000   1.0000   1.0000   1.0000   1.0000   1.0000
     1.0000   1.0000   1.0000   1.0000   1.0000   1.0000   1.0000   1.0000
     1.0000   1.0000   1.0000   1.0000   1.0000   1.0000   1.0000   1.0000
     1.0000   1.0000   1.0000   1.0000   1.0000   1.0000   1.0000   1.0000
     1.0000   1.0000   1.0000   1.0000   1.0000   1.0000   1.0000   1.0000
     1.0000   1.0000   1.0000   1.0000   1.0000   1.0000   1.0000   1.0000
     1.0000   1.0000   1.0000   1.0000   1.0000   1.0000   1.0000   1.0000
     1.0000   1.0000   1.0000   1.0000   1.0000   1.0000   1.0000   1.0000

          k = 0.0455 0.0455 0.3182 (  8281 PWs)   bands (ev):

    -1.2521  -1.2521   0.9505   0.9505   2.8513   2.8513   2.8528   2.8528
     8.3152   8.3152   8.3157   8.3157   9.5524   9.5524   9.5526   9.5526
    10.1211  10.1211  11.4497  11.4497  11.4498  11.4498  12.6018  12.6018
    12.6664  12.6664  13.3667  13.3667  14.1057  14.1057  14.6336  14.6336
    15.6352  15.6352  17.1995  17.1995  17.2005  17.2005  20.4415  20.4415
    22.8615  22.8615  23.1626  23.1626  24.5678  24.5678  24.5678  24.5678
    24.8656  24.8656  25.1018  25.1018  25.1027  25.1027  26.2268  26.2268
    27.1776  27.1776  28.2495  28.2495  29.0832  29.0832  29.2967  29.2967

     occupation numbers 
     1.0000   1.0000   1.0000   1.0000   1.0000   1.0000   1.0000   1.0000
     1.0000   1.0000   1.0000   1.0000   1.0000   1.0000   1.0000   1.0000
     1.0000   1.0000   1.0000   1.0000   1.0000   1.0000   1.0000   1.0000
     1.0000   1.0000   1.0000   1.0000   1.0000   1.0000   1.0000   1.0000
     1.0000   1.0000   1.0000   1.0000   1.0000   1.0000   1.0000   1.0000
     1.0000   1.0000   1.0000   1.0000   1.0000   1.0000   1.0000   1.0000
     1.0000   1.0000   1.0000   1.0000   1.0000   1.0000   1.0000   1.0000
     1.0000   1.0000   1.0000   1.0000   1.0000   1.0000   1.0000   1.0000

          k = 0.0455 0.0455 0.4091 (  8279 PWs)   bands (ev):

    -0.8286  -0.8286   0.2910   0.2910   2.9455   2.9455   2.9471   2.9471
     7.9090   7.9090   7.9095   7.9095   9.9044   9.9044   9.9047   9.9047
    10.6506  10.6506  10.9231  10.9231  10.9233  10.9233  11.9170  11.9170
    13.1045  13.1045  14.0413  14.0413  14.1045  14.1045  15.1050  15.1050
    15.2225  15.2225  18.6316  18.6316  18.8513  18.8513  18.8523  18.8523
    23.2127  23.2127  23.2136  23.2136  23.2353  23.2353  24.2373  24.2373
    24.8147  24.8147  25.8667  25.8667  25.8668  25.8668  26.6121  26.6121
    27.6202  27.6202  27.6264  27.6264  28.4822  28.4822  28.8192  28.8192

     occupation numbers 
     1.0000   1.0000   1.0000   1.0000   1.0000   1.0000   1.0000   1.0000
     1.0000   1.0000   1.0000   1.0000   1.0000   1.0000   1.0000   1.0000
     1.0000   1.0000   1.0000   1.0000   1.0000   1.0000   1.0000   1.0000
     1.0000   1.0000   1.0000   1.0000   1.0000   1.0000   1.0000   1.0000
     1.0000   1.0000   1.0000   1.0000   1.0000   1.0000   1.0000   1.0000
     1.0000   1.0000   1.0000   1.0000   1.0000   1.0000   1.0000   1.0000
     1.0000   1.0000   1.0000   1.0000   1.0000   1.0000   1.0000   1.0000
     1.0000   1.0000   1.0000   1.0000   1.0000   1.0000   1.0000   1.0000

          k = 0.0455 0.0455-0.5000 (  8280 PWs)   bands (ev):

    -0.3106  -0.3106  -0.3095  -0.3095   2.9829   2.9829   2.9844   2.9844
     7.7631   7.7631   7.7636   7.7636  10.2355  10.2355  10.2364  10.2364
    10.5330  10.5330  10.5338  10.5338  11.2439  11.2439  11.2441  11.2441
    13.5903  13.5903  13.5912  13.5912  14.5731  14.5731  14.5740  14.5740
    16.8329  16.8329  16.8330  16.8330  19.9556  19.9556  19.9566  19.9566
    22.0347  22.0347  22.0356  22.0356  23.6972  23.6972  23.6979  23.6979
    26.5940  26.5940  26.5941  26.5941  27.1548  27.1548  27.1552  27.1552
    27.2152  27.2152  27.2154  27.2154  27.3687  27.3687  27.3688  27.3688

     occupation numbers 
     1.0000   1.0000   1.0000   1.0000   1.0000   1.0000   1.0000   1.0000
     1.0000   1.0000   1.0000   1.0000   1.0000   1.0000   1.0000   1.0000
     1.0000   1.0000   1.0000   1.0000   1.0000   1.0000   1.0000   1.0000
     1.0000   1.0000   1.0000   1.0000   1.0000   1.0000   1.0000   1.0000
     1.0000   1.0000   1.0000   1.0000   1.0000   1.0000   1.0000   1.0000
     1.0000   1.0000   1.0000   1.0000   1.0000   1.0000   1.0000   1.0000
     1.0000   1.0000   1.0000   1.0000   1.0000   1.0000   1.0000   1.0000
     1.0000   1.0000   1.0000   1.0000   1.0000   1.0000   1.0000   1.0000

          k = 0.0455 0.1364 0.1364 (  8302 PWs)   bands (ev):

    -1.6815  -1.6815   2.2830   2.2830   2.2843   2.2843   2.6888   2.6888
     8.8380   8.8380   9.0017   9.0017   9.0019   9.0019   9.4614   9.4614
    10.5637  10.5637  10.5644  10.5644  12.4317  12.4317  12.4327  12.4327
    12.7625  12.7625  13.5734  13.5734  14.3090  14.3090  14.3091  14.3091
    14.4869  14.4869  15.4754  15.4754  16.6283  16.6283  20.2840  20.2840
    22.8163  22.8163  22.8164  22.8164  23.1619  23.1619  24.1585  24.1585
    25.2741  25.2741  26.0528  26.0528  26.9800  26.9800  27.0459  27.0459
    27.7517  27.7517  28.2979  28.2979  28.3570  28.3570  28.3572  28.3572

     occupation numbers 
     1.0000   1.0000   1.0000   1.0000   1.0000   1.0000   1.0000   1.0000
     1.0000   1.0000   1.0000   1.0000   1.0000   1.0000   1.0000   1.0000
     1.0000   1.0000   1.0000   1.0000   1.0000   1.0000   1.0000   1.0000
     1.0000   1.0000   1.0000   1.0000   1.0000   1.0000   1.0000   1.0000
     1.0000   1.0000   1.0000   1.0000   1.0000   1.0000   1.0000   1.0000
     1.0000   1.0000   1.0000   1.0000   1.0000   1.0000   1.0000   1.0000
     1.0000   1.0000   1.0000   1.0000   1.0000   1.0000   1.0000   1.0000
     1.0000   1.0000   1.0000   1.0000   1.0000   1.0000   1.0000   1.0000

          k = 0.0455 0.1364 0.2273 (  8285 PWs)   bands (ev):

    -1.4665  -1.4665   1.7007   1.7007   2.4036   2.4036   2.7614   2.7614
     8.3867   8.3867   8.5864   8.5864   9.2412   9.2412   9.3691   9.3691
    10.3162  10.3162  11.5147  11.5147  12.0627  12.0627  12.6763  12.6763
    12.6775  12.6775  12.7595  12.7595  14.5739  14.5739  15.1109  15.1109
    15.5253  15.5253  15.7214  15.7214  16.5070  16.5070  21.1532  21.1532
    22.8877  22.8877  23.0024  23.0024  23.6041  23.6041  23.9653  23.9653
    25.0032  25.0032  25.7573  25.7573  26.6269  26.6269  26.8221  26.8221
    26.9396  26.9396  27.7820  27.7820  27.8117  27.8117  28.5462  28.5462

     occupation numbers 
     1.0000   1.0000   1.0000   1.0000   1.0000   1.0000   1.0000   1.0000
     1.0000   1.0000   1.0000   1.0000   1.0000   1.0000   1.0000   1.0000
     1.0000   1.0000   1.0000   1.0000   1.0000   1.0000   1.0000   1.0000
     1.0000   1.0000   1.0000   1.0000   1.0000   1.0000   1.0000   1.0000
     1.0000   1.0000   1.0000   1.0000   1.0000   1.0000   1.0000   1.0000
     1.0000   1.0000   1.0000   1.0000   1.0000   1.0000   1.0000   1.0000
     1.0000   1.0000   1.0000   1.0000   1.0000   1.0000   1.0000   1.0000
     1.0000   1.0000   1.0000   1.0000   1.0000   1.0000   1.0000   1.0000

          k = 0.0455 0.1364 0.3182 (  8303 PWs)   bands (ev):

    -1.1464  -1.1464   1.0391   1.0391   2.5588   2.5588   2.8352   2.8352
     7.8326   7.8326   8.0430   8.0430   9.5792   9.5792   9.6250   9.6250
    10.4398  10.4398  11.5723  11.5723  11.9512  11.9512  12.2548  12.2548
    12.5315  12.5315  13.1850  13.1850  14.6463  14.6463  15.0245  15.0245
    16.1279  16.1279  16.9894  16.9894  17.3068  17.3068  20.6189  20.6189
    22.9220  22.9220  23.2793  23.2793  24.5934  24.5934  24.7975  24.7975
    24.8728  24.8728  25.1080  25.1080  25.2964  25.2964  25.3438  25.3438
    27.0105  27.0105  27.1787  27.1787  28.7997  28.7997  29.0847  29.0847

     occupation numbers 
     1.0000   1.0000   1.0000   1.0000   1.0000   1.0000   1.0000   1.0000
     1.0000   1.0000   1.0000   1.0000   1.0000   1.0000   1.0000   1.0000
     1.0000   1.0000   1.0000   1.0000   1.0000   1.0000   1.0000   1.0000
     1.0000   1.0000   1.0000   1.0000   1.0000   1.0000   1.0000   1.0000
     1.0000   1.0000   1.0000   1.0000   1.0000   1.0000   1.0000   1.0000
     1.0000   1.0000   1.0000   1.0000   1.0000   1.0000   1.0000   1.0000
     1.0000   1.0000   1.0000   1.0000   1.0000   1.0000   1.0000   1.0000
     1.0000   1.0000   1.0000   1.0000   1.0000   1.0000   1.0000   1.0000

          k = 0.0455 0.1364 0.4091 (  8285 PWs)   bands (ev):

    -0.7251  -0.7251   0.3866   0.3866   2.7157   2.7157   2.8698   2.8698
     7.4810   7.4810   7.6100   7.6100   9.9988   9.9988  10.0201  10.0201
    10.6846  10.6846  11.1160  11.1160  11.2120  11.2120  11.7529  11.7529
    13.1423  13.1423  14.1402  14.1402  14.1427  14.1427  15.6051  15.6051
    15.8198  15.8198  18.5968  18.5968  18.8398  18.8398  18.9350  18.9350
    22.8731  22.8731  23.2364  23.2364  23.6432  23.6432  24.3122  24.3122
    24.7266  24.7266  25.6718  25.6718  25.9478  25.9478  26.3618  26.3618
    26.5270  26.5270  27.4171  27.4171  28.0911  28.0911  28.7250  28.7250

     occupation numbers 
     1.0000   1.0000   1.0000   1.0000   1.0000   1.0000   1.0000   1.0000
     1.0000   1.0000   1.0000   1.0000   1.0000   1.0000   1.0000   1.0000
     1.0000   1.0000   1.0000   1.0000   1.0000   1.0000   1.0000   1.0000
     1.0000   1.0000   1.0000   1.0000   1.0000   1.0000   1.0000   1.0000
     1.0000   1.0000   1.0000   1.0000   1.0000   1.0000   1.0000   1.0000
     1.0000   1.0000   1.0000   1.0000   1.0000   1.0000   1.0000   1.0000
     1.0000   1.0000   1.0000   1.0000   1.0000   1.0000   1.0000   1.0000
     1.0000   1.0000   1.0000   1.0000   1.0000   1.0000   1.0000   1.0000

          k = 0.0455 0.1364-0.5000 (  8278 PWs)   bands (ev):

    -0.2102  -0.2102  -0.2091  -0.2091   2.8298   2.8298   2.8313   2.8313
     7.4049   7.4049   7.4052   7.4052  10.4369  10.4369  10.4378  10.4378
    10.5652  10.5652  10.5653  10.5653  11.2794  11.2794  11.2801  11.2801
    13.6343  13.6343  13.6352  13.6352  14.9736  14.9736  14.9741  14.9741
    17.1477  17.1477  17.1480  17.1480  19.8455  19.8455  19.8464  19.8464
    21.8983  21.8983  21.8992  21.8992  24.0832  24.0832  24.0839  24.0839
    25.7961  25.7961  25.7964  25.7964  26.5388  26.5388  26.5391  26.5391
    27.3438  27.3438  27.3440  27.3440  27.7941  27.7941  27.7942  27.7942

     occupation numbers 
     1.0000   1.0000   1.0000   1.0000   1.0000   1.0000   1.0000   1.0000
     1.0000   1.0000   1.0000   1.0000   1.0000   1.0000   1.0000   1.0000
     1.0000   1.0000   1.0000   1.0000   1.0000   1.0000   1.0000   1.0000
     1.0000   1.0000   1.0000   1.0000   1.0000   1.0000   1.0000   1.0000
     1.0000   1.0000   1.0000   1.0000   1.0000   1.0000   1.0000   1.0000
     1.0000   1.0000   1.0000   1.0000   1.0000   1.0000   1.0000   1.0000
     1.0000   1.0000   1.0000   1.0000   1.0000   1.0000   1.0000   1.0000
     1.0000   1.0000   1.0000   1.0000   1.0000   1.0000   1.0000   1.0000

          k = 0.0455 0.2273 0.2273 (  8287 PWs)   bands (ev):

    -1.2533  -1.2533   1.8500   1.8500   1.8513   1.8513   2.7857   2.7857
     7.7780   7.7780   8.6154   8.6154   8.6155   8.6155   9.5283   9.5283
    11.4532  11.4532  11.4539  11.4539  11.9104  11.9104  12.3162  12.3162
    12.3172  12.3172  13.3205  13.3205  14.7902  14.7902  15.7552  15.7552
    15.9622  15.9622  15.9623  15.9623  16.8535  16.8535  21.6098  21.6098
    22.5860  22.5860  23.6937  23.6937  23.7838  23.7838  23.7839  23.7839
    24.7746  24.7746  25.8787  25.8787  26.0510  26.0510  26.0513  26.0513
    26.4557  26.4557  27.3590  27.3590  27.4118  27.4118  28.7784  28.7784

     occupation numbers 
     1.0000   1.0000   1.0000   1.0000   1.0000   1.0000   1.0000   1.0000
     1.0000   1.0000   1.0000   1.0000   1.0000   1.0000   1.0000   1.0000
     1.0000   1.0000   1.0000   1.0000   1.0000   1.0000   1.0000   1.0000
     1.0000   1.0000   1.0000   1.0000   1.0000   1.0000   1.0000   1.0000
     1.0000   1.0000   1.0000   1.0000   1.0000   1.0000   1.0000   1.0000
     1.0000   1.0000   1.0000   1.0000   1.0000   1.0000   1.0000   1.0000
     1.0000   1.0000   1.0000   1.0000   1.0000   1.0000   1.0000   1.0000
     1.0000   1.0000   1.0000   1.0000   1.0000   1.0000   1.0000   1.0000

          k = 0.0455 0.2273 0.3182 (  8290 PWs)   bands (ev):

    -0.9362  -0.9362   1.2121   1.2121   2.0579   2.0579   2.7765   2.7765
     7.2986   7.2986   7.9713   7.9713   8.8395   8.8395   9.8174   9.8174
    11.0926  11.0926  11.4995  11.4995  11.9609  11.9609  12.3860  12.3860
    13.0523  13.0523  13.3149  13.3149  14.3321  14.3321  16.3435  16.3435
    16.7502  16.7502  16.8136  16.8136  17.5200  17.5200  20.9899  20.9899
    22.6583  22.6583  23.5656  23.5656  24.0472  24.0472  24.1304  24.1304
    24.8611  24.8611  24.9999  24.9999  25.4091  25.4091  25.7324  25.7324
    25.9199  25.9199  27.3108  27.3108  28.3168  28.3168  28.6448  28.6448

     occupation numbers 
     1.0000   1.0000   1.0000   1.0000   1.0000   1.0000   1.0000   1.0000
     1.0000   1.0000   1.0000   1.0000   1.0000   1.0000   1.0000   1.0000
     1.0000   1.0000   1.0000   1.0000   1.0000   1.0000   1.0000   1.0000
     1.0000   1.0000   1.0000   1.0000   1.0000   1.0000   1.0000   1.0000
     1.0000   1.0000   1.0000   1.0000   1.0000   1.0000   1.0000   1.0000
     1.0000   1.0000   1.0000   1.0000   1.0000   1.0000   1.0000   1.0000
     1.0000   1.0000   1.0000   1.0000   1.0000   1.0000   1.0000   1.0000
     1.0000   1.0000   1.0000   1.0000   1.0000   1.0000   1.0000   1.0000

          k = 0.0455 0.2273 0.4091 (  8295 PWs)   bands (ev):

    -0.5194  -0.5194   0.5752   0.5752   2.2960   2.2960   2.6938   2.6938
     7.0692   7.0692   7.4479   7.4479   9.2182   9.2182  10.2015  10.2015
    10.3583  10.3583  11.1479  11.1479  12.1077  12.1077  12.8554  12.8554
    12.9419  12.9419  13.8258  13.8258  14.3808  14.3808  16.3881  16.3881
    16.9260  16.9260  18.2070  18.2070  19.0906  19.0906  19.3022  19.3022
    22.3564  22.3564  23.2968  23.2968  23.6149  23.6149  24.2407  24.2407
    24.3660  24.3660  24.8029  24.8029  25.3535  25.3535  26.1037  26.1037
    27.0908  27.0908  27.5617  27.5617  27.6127  27.6127  28.7530  28.7530

     occupation numbers 
     1.0000   1.0000   1.0000   1.0000   1.0000   1.0000   1.0000   1.0000
     1.0000   1.0000   1.0000   1.0000   1.0000   1.0000   1.0000   1.0000
     1.0000   1.0000   1.0000   1.0000   1.0000   1.0000   1.0000   1.0000
     1.0000   1.0000   1.0000   1.0000   1.0000   1.0000   1.0000   1.0000
     1.0000   1.0000   1.0000   1.0000   1.0000   1.0000   1.0000   1.0000
     1.0000   1.0000   1.0000   1.0000   1.0000   1.0000   1.0000   1.0000
     1.0000   1.0000   1.0000   1.0000   1.0000   1.0000   1.0000   1.0000
     1.0000   1.0000   1.0000   1.0000   1.0000   1.0000   1.0000   1.0000

          k = 0.0455 0.2273-0.5000 (  8272 PWs)   bands (ev):

    -0.0113  -0.0113  -0.0103  -0.0103   2.5233   2.5233   2.5248   2.5248
     7.1271   7.1271   7.1273   7.1273   9.7290   9.7290   9.7292   9.7292
    10.6572  10.6572  10.6581  10.6581  12.4984  12.4984  12.4990  12.4990
    13.3236  13.3236  13.3245  13.3245  15.5844  15.5844  15.5846  15.5846
    17.8734  17.8734  17.8739  17.8739  19.5945  19.5945  19.5953  19.5953
    21.7971  21.7971  21.7979  21.7979  24.1602  24.1602  24.1605  24.1605
    24.8183  24.8183  24.8190  24.8190  25.8583  25.8583  25.8584  25.8584
    27.4652  27.4652  27.4653  27.4653  28.1183  28.1183  28.1186  28.1186

     occupation numbers 
     1.0000   1.0000   1.0000   1.0000   1.0000   1.0000   1.0000   1.0000
     1.0000   1.0000   1.0000   1.0000   1.0000   1.0000   1.0000   1.0000
     1.0000   1.0000   1.0000   1.0000   1.0000   1.0000   1.0000   1.0000
     1.0000   1.0000   1.0000   1.0000   1.0000   1.0000   1.0000   1.0000
     1.0000   1.0000   1.0000   1.0000   1.0000   1.0000   1.0000   1.0000
     1.0000   1.0000   1.0000   1.0000   1.0000   1.0000   1.0000   1.0000
     1.0000   1.0000   1.0000   1.0000   1.0000   1.0000   1.0000   1.0000
     1.0000   1.0000   1.0000   1.0000   1.0000   1.0000   1.0000   1.0000

          k = 0.0455 0.3182 0.3182 (  8302 PWs)   bands (ev):

    -0.6239  -0.6239   1.4592   1.4592   1.4604   1.4604   2.6384   2.6384
     6.9543   6.9543   8.1203   8.1203   8.1204   8.1204  10.1153  10.1153
    10.2736  10.2736  11.9808  11.9808  11.9818  11.9818  13.2034  13.2034
    13.2042  13.2042  13.8676  13.8676  14.1021  14.1021  16.9125  16.9125
    17.1890  17.1890  17.8417  17.8417  17.8418  17.8418  21.2067  21.2067
    22.0802  22.0802  22.7911  22.7911  23.5118  23.5118  23.5121  23.5121
    24.5693  24.5693  25.1018  25.1018  25.1018  25.1018  26.1368  26.1368
    26.5344  26.5344  27.8772  27.8772  28.0442  28.0442  28.0839  28.0839

     occupation numbers 
     1.0000   1.0000   1.0000   1.0000   1.0000   1.0000   1.0000   1.0000
     1.0000   1.0000   1.0000   1.0000   1.0000   1.0000   1.0000   1.0000
     1.0000   1.0000   1.0000   1.0000   1.0000   1.0000   1.0000   1.0000
     1.0000   1.0000   1.0000   1.0000   1.0000   1.0000   1.0000   1.0000
     1.0000   1.0000   1.0000   1.0000   1.0000   1.0000   1.0000   1.0000
     1.0000   1.0000   1.0000   1.0000   1.0000   1.0000   1.0000   1.0000
     1.0000   1.0000   1.0000   1.0000   1.0000   1.0000   1.0000   1.0000
     1.0000   1.0000   1.0000   1.0000   1.0000   1.0000   1.0000   1.0000

          k = 0.0455 0.3182 0.4091 (  8278 PWs)   bands (ev):

    -0.2148  -0.2148   0.8503   0.8503   1.7642   1.7642   2.4026   2.4026
     6.8845   6.8845   7.5169   7.5169   8.4511   8.4511   9.5461   9.5461
    10.5035  10.5035  11.4723  11.4723  12.3882  12.3882  13.3548  13.3548
    13.5161  13.5161  14.1877  14.1877  14.6790  14.6790  16.9686  16.9686
    17.8919  17.8919  18.2909  18.2909  19.2943  19.2943  20.0131  20.0131
    21.8311  21.8311  22.0985  22.0985  22.9267  22.9267  23.2990  23.2990
    23.6797  23.6797  25.3918  25.3918  26.1424  26.1424  26.3061  26.3061
    26.8255  26.8255  26.9138  26.9138  27.9872  27.9872  28.0314  28.0314

     occupation numbers 
     1.0000   1.0000   1.0000   1.0000   1.0000   1.0000   1.0000   1.0000
     1.0000   1.0000   1.0000   1.0000   1.0000   1.0000   1.0000   1.0000
     1.0000   1.0000   1.0000   1.0000   1.0000   1.0000   1.0000   1.0000
     1.0000   1.0000   1.0000   1.0000   1.0000   1.0000   1.0000   1.0000
     1.0000   1.0000   1.0000   1.0000   1.0000   1.0000   1.0000   1.0000
     1.0000   1.0000   1.0000   1.0000   1.0000   1.0000   1.0000   1.0000
     1.0000   1.0000   1.0000   1.0000   1.0000   1.0000   1.0000   1.0000
     1.0000   1.0000   1.0000   1.0000   1.0000   1.0000   1.0000   1.0000

          k = 0.0455 0.3182-0.5000 (  8268 PWs)   bands (ev):

     0.2816   0.2816   0.2826   0.2826   2.0933   2.0933   2.0947   2.0947
     7.0870   7.0870   7.0871   7.0871   8.9329   8.9329   8.9331   8.9331
    10.9640  10.9640  10.9649  10.9649  12.8498  12.8498  12.8508  12.8508
    13.8851  13.8851  13.8856  13.8856  16.0539  16.0539  16.0540  16.0540
    18.9516  18.9516  18.9523  18.9523  19.2514  19.2514  19.2519  19.2519
    21.8144  21.8144  21.8150  21.8150  22.4401  22.4401  22.4405  22.4405
    25.0578  25.0578  25.0579  25.0579  25.9163  25.9163  25.9170  25.9170
    27.1646  27.1646  27.1648  27.1648  27.8796  27.8796  27.8797  27.8797

     occupation numbers 
     1.0000   1.0000   1.0000   1.0000   1.0000   1.0000   1.0000   1.0000
     1.0000   1.0000   1.0000   1.0000   1.0000   1.0000   1.0000   1.0000
     1.0000   1.0000   1.0000   1.0000   1.0000   1.0000   1.0000   1.0000
     1.0000   1.0000   1.0000   1.0000   1.0000   1.0000   1.0000   1.0000
     1.0000   1.0000   1.0000   1.0000   1.0000   1.0000   1.0000   1.0000
     1.0000   1.0000   1.0000   1.0000   1.0000   1.0000   1.0000   1.0000
     1.0000   1.0000   1.0000   1.0000   1.0000   1.0000   1.0000   1.0000
     1.0000   1.0000   1.0000   1.0000   1.0000   1.0000   1.0000   1.0000

          k = 0.0455 0.4091 0.4091 (  8276 PWs)   bands (ev):

     0.1823   0.1823   1.1991   1.1991   1.2003   1.2003   2.0203   2.0203
     6.9665   6.9665   7.7924   7.7924   7.7925   7.7925   8.8311   8.8311
    10.8935  10.8935  11.8661  11.8661  11.8671  11.8671  12.8361  12.8361
    14.9981  14.9981  14.9990  14.9990  15.0814  15.0814  17.0419  17.0419
    18.0537  18.0537  19.5175  19.5175  19.5177  19.5177  20.4740  20.4740
    20.9289  20.9289  21.4198  21.4198  21.4199  21.4199  22.8896  22.8896
    23.7877  23.7877  25.9351  25.9351  26.0750  26.0750  26.0750  26.0750
    26.7677  26.7677  26.8017  26.8017  26.8018  26.8018  28.5531  28.5531

     occupation numbers 
     1.0000   1.0000   1.0000   1.0000   1.0000   1.0000   1.0000   1.0000
     1.0000   1.0000   1.0000   1.0000   1.0000   1.0000   1.0000   1.0000
     1.0000   1.0000   1.0000   1.0000   1.0000   1.0000   1.0000   1.0000
     1.0000   1.0000   1.0000   1.0000   1.0000   1.0000   1.0000   1.0000
     1.0000   1.0000   1.0000   1.0000   1.0000   1.0000   1.0000   1.0000
     1.0000   1.0000   1.0000   1.0000   1.0000   1.0000   1.0000   1.0000
     1.0000   1.0000   1.0000   1.0000   1.0000   1.0000   1.0000   1.0000
     1.0000   1.0000   1.0000   1.0000   1.0000   1.0000   1.0000   1.0000

          k = 0.0455 0.4091-0.5000 (  8266 PWs)   bands (ev):

     0.6600   0.6600   0.6611   0.6611   1.6012   1.6012   1.6024   1.6024
     7.2842   7.2842   7.2843   7.2843   8.2393   8.2393   8.2395   8.2395
    11.3553  11.3553  11.3562  11.3562  12.3278  12.3278  12.3287  12.3287
    15.2392  15.2392  15.2396  15.2396  16.3228  16.3228  16.3229  16.3229
    19.0098  19.0098  19.0101  19.0101  19.8280  19.8280  19.8288  19.8288
    21.1557  21.1557  21.1560  21.1560  21.8325  21.8325  21.8331  21.8331
    24.7065  24.7065  24.7066  24.7066  25.7990  25.7990  25.7992  25.7992
    26.8936  26.8936  26.8943  26.8943  27.9140  27.9140  27.9140  27.9140

     occupation numbers 
     1.0000   1.0000   1.0000   1.0000   1.0000   1.0000   1.0000   1.0000
     1.0000   1.0000   1.0000   1.0000   1.0000   1.0000   1.0000   1.0000
     1.0000   1.0000   1.0000   1.0000   1.0000   1.0000   1.0000   1.0000
     1.0000   1.0000   1.0000   1.0000   1.0000   1.0000   1.0000   1.0000
     1.0000   1.0000   1.0000   1.0000   1.0000   1.0000   1.0000   1.0000
     1.0000   1.0000   1.0000   1.0000   1.0000   1.0000   1.0000   1.0000
     1.0000   1.0000   1.0000   1.0000   1.0000   1.0000   1.0000   1.0000
     1.0000   1.0000   1.0000   1.0000   1.0000   1.0000   1.0000   1.0000

          k = 0.0455-0.5000-0.5000 (  8296 PWs)   bands (ev):

     1.1087   1.1087   1.1087   1.1087   1.1087   1.1087   1.1111   1.1111
     7.6801   7.6801   7.6801   7.6801   7.6802   7.6802   7.6803   7.6803
    11.8174  11.8174  11.8174  11.8174  11.8175  11.8175  11.8194  11.8194
    16.1611  16.1611  16.1613  16.1613  16.1622  16.1622  16.1625  16.1625
    19.2586  19.2586  19.2587  19.2587  19.2589  19.2589  19.2590  19.2590
    21.5343  21.5343  21.5349  21.5349  21.5349  21.5349  21.5355  21.5355
    24.8393  24.8393  24.8393  24.8393  24.8394  24.8394  24.8395  24.8395
    27.7004  27.7004  27.7009  27.7009  27.7009  27.7009  27.7013  27.7013

     occupation numbers 
     1.0000   1.0000   1.0000   1.0000   1.0000   1.0000   1.0000   1.0000
     1.0000   1.0000   1.0000   1.0000   1.0000   1.0000   1.0000   1.0000
     1.0000   1.0000   1.0000   1.0000   1.0000   1.0000   1.0000   1.0000
     1.0000   1.0000   1.0000   1.0000   1.0000   1.0000   1.0000   1.0000
     1.0000   1.0000   1.0000   1.0000   1.0000   1.0000   1.0000   1.0000
     1.0000   1.0000   1.0000   1.0000   1.0000   1.0000   1.0000   1.0000
     1.0000   1.0000   1.0000   1.0000   1.0000   1.0000   1.0000   1.0000
     1.0000   1.0000   1.0000   1.0000   1.0000   1.0000   1.0000   1.0000

          k = 0.1364 0.1364 0.1364 (  8277 PWs)   bands (ev):

    -1.5740  -1.5740   2.3401   2.3401   2.3401   2.3401   2.3422   2.3422
     8.7029   8.7029   8.7029   8.7029   8.7031   8.7031  10.2660  10.2660
    10.2660  10.2660  10.2669  10.2669  12.8724  12.8724  12.8732  12.8732
    12.8733  12.8733  12.9275  12.9275  14.6162  14.6162  14.6164  14.6164
    14.6170  14.6170  15.5773  15.5773  16.6560  16.6560  20.5485  20.5485
    23.2530  23.2530  23.2530  23.2530  23.2530  23.2530  23.9723  23.9723
    25.0462  25.0462  25.5851  25.5851  26.9106  26.9106  27.4402  27.4402
    27.5108  27.5108  27.9829  27.9829  27.9835  27.9835  27.9838  27.9838

     occupation numbers 
     1.0000   1.0000   1.0000   1.0000   1.0000   1.0000   1.0000   1.0000
     1.0000   1.0000   1.0000   1.0000   1.0000   1.0000   1.0000   1.0000
     1.0000   1.0000   1.0000   1.0000   1.0000   1.0000   1.0000   1.0000
     1.0000   1.0000   1.0000   1.0000   1.0000   1.0000   1.0000   1.0000
     1.0000   1.0000   1.0000   1.0000   1.0000   1.0000   1.0000   1.0000
     1.0000   1.0000   1.0000   1.0000   1.0000   1.0000   1.0000   1.0000
     1.0000   1.0000   1.0000   1.0000   1.0000   1.0000   1.0000   1.0000
     1.0000   1.0000   1.0000   1.0000   1.0000   1.0000   1.0000   1.0000

          k = 0.1364 0.1364 0.2273 (  8291 PWs)   bands (ev):

    -1.3599  -1.3599   1.7739   1.7739   2.4431   2.4431   2.4445   2.4445
     8.1462   8.1462   8.1464   8.1464   8.7830   8.7830  10.2506  10.2506
    10.2511  10.2511  11.3694  11.3694  12.1110  12.1110  12.7893  12.7893
    12.7895  12.7895  13.0994  13.0994  14.8877  14.8877  15.3846  15.3846
    15.6463  15.6463  15.6471  15.6471  16.5778  16.5778  21.1804  21.1804
    22.8625  22.8625  23.4333  23.4333  24.0499  24.0499  24.0500  24.0500
    24.7237  24.7237  25.5574  25.5574  26.5964  26.5964  26.5972  26.5972
    26.6330  26.6330  27.4663  27.4663  28.0138  28.0138  28.2645  28.2645

     occupation numbers 
     1.0000   1.0000   1.0000   1.0000   1.0000   1.0000   1.0000   1.0000
     1.0000   1.0000   1.0000   1.0000   1.0000   1.0000   1.0000   1.0000
     1.0000   1.0000   1.0000   1.0000   1.0000   1.0000   1.0000   1.0000
     1.0000   1.0000   1.0000   1.0000   1.0000   1.0000   1.0000   1.0000
     1.0000   1.0000   1.0000   1.0000   1.0000   1.0000   1.0000   1.0000
     1.0000   1.0000   1.0000   1.0000   1.0000   1.0000   1.0000   1.0000
     1.0000   1.0000   1.0000   1.0000   1.0000   1.0000   1.0000   1.0000
     1.0000   1.0000   1.0000   1.0000   1.0000   1.0000   1.0000   1.0000

          k = 0.1364 0.1364 0.3182 (  8287 PWs)   bands (ev):

    -1.0414  -1.0414   1.1246   1.1246   2.5671   2.5671   2.5686   2.5686
     7.5847   7.5847   7.5849   7.5849   9.0372   9.0372  10.4574  10.4574
    10.4578  10.4578  11.3093  11.3093  12.3785  12.3785  12.3786  12.3786
    12.5711  12.5711  13.4829  13.4829  14.9908  14.9908  15.3433  15.3433
    16.2511  16.2511  17.0987  17.0987  17.0995  17.0995  20.7470  20.7470
    22.6285  22.6285  23.6977  23.6977  24.6525  24.6525  24.6532  24.6532
    24.8885  24.8885  25.2381  25.2381  25.2384  25.2384  25.5480  25.5480
    26.3697  26.3697  26.8655  26.8655  28.0448  28.0448  29.0889  29.0889

     occupation numbers 
     1.0000   1.0000   1.0000   1.0000   1.0000   1.0000   1.0000   1.0000
     1.0000   1.0000   1.0000   1.0000   1.0000   1.0000   1.0000   1.0000
     1.0000   1.0000   1.0000   1.0000   1.0000   1.0000   1.0000   1.0000
     1.0000   1.0000   1.0000   1.0000   1.0000   1.0000   1.0000   1.0000
     1.0000   1.0000   1.0000   1.0000   1.0000   1.0000   1.0000   1.0000
     1.0000   1.0000   1.0000   1.0000   1.0000   1.0000   1.0000   1.0000
     1.0000   1.0000   1.0000   1.0000   1.0000   1.0000   1.0000   1.0000
     1.0000   1.0000   1.0000   1.0000   1.0000   1.0000   1.0000   1.0000

          k = 0.1364 0.1364 0.4091 (  8288 PWs)   bands (ev):

[...]
     1.0000   1.0000   1.0000   1.0000   1.0000   1.0000   1.0000   1.0000
     1.0000   1.0000   1.0000   1.0000   1.0000   1.0000   1.0000   1.0000
     1.0000   1.0000   1.0000   1.0000   1.0000   1.0000   1.0000   1.0000
     1.0000   1.0000   1.0000   1.0000   1.0000   1.0000   1.0000   1.0000
     1.0000   1.0000   1.0000   1.0000   1.0000   1.0000   1.0000   1.0000
     1.0000   1.0000   1.0000   1.0000   1.0000   1.0000   1.0000   1.0000

          k = 0.3182 0.3182-0.5000 (  8272 PWs)   bands (ev):

     0.8057   0.8057   0.8068   0.8068   1.9702   1.9702   1.9717   1.9717
     5.7611   5.7611   5.7611   5.7611   6.9303   6.9303   6.9305   6.9305
    13.8536  13.8536  13.8546  13.8546  14.8423  14.8423  14.8425  14.8425
    15.2192  15.2192  15.2201  15.2201  16.2587  16.2587  16.2590  16.2590
    18.9803  18.9803  18.9809  18.9809  19.4359  19.4359  19.4365  19.4365
    20.8809  20.8809  20.8817  20.8817  22.1865  22.1865  22.1869  22.1869
    22.7901  22.7901  22.7903  22.7903  24.6244  24.6244  24.6250  24.6250
    24.6450  24.6450  24.6453  24.6453  26.4244  26.4244  26.4247  26.4247

     occupation numbers 
     1.0000   1.0000   1.0000   1.0000   1.0000   1.0000   1.0000   1.0000
     1.0000   1.0000   1.0000   1.0000   1.0000   1.0000   1.0000   1.0000
     1.0000   1.0000   1.0000   1.0000   1.0000   1.0000   1.0000   1.0000
     1.0000   1.0000   1.0000   1.0000   1.0000   1.0000   1.0000   1.0000
     1.0000   1.0000   1.0000   1.0000   1.0000   1.0000   1.0000   1.0000
     1.0000   1.0000   1.0000   1.0000   1.0000   1.0000   1.0000   1.0000
     1.0000   1.0000   1.0000   1.0000   1.0000   1.0000   1.0000   1.0000
     1.0000   1.0000   1.0000   1.0000   1.0000   1.0000   1.0000   1.0000

          k = 0.3182 0.4091 0.4091 (  8261 PWs)   bands (ev):

     0.7100   0.7100   1.5407   1.5407   1.5421   1.5421   1.8923   1.8923
     5.6476   5.6476   5.9994   5.9994   5.9995   5.9995   6.8331   6.8331
    14.1247  14.1247  14.6928  14.6928  14.6934  14.6934  15.5878  15.5878
    15.6499  15.6499  15.6509  15.6509  15.6667  15.6667  17.0419  17.0419
    18.7054  18.7054  18.9593  18.9593  18.9594  18.9594  20.2243  20.2243
    21.0485  21.0485  21.4441  21.4441  21.4445  21.4445  21.6665  21.6665
    21.8255  21.8255  23.5297  23.5297  23.5300  23.5300  23.5424  23.5424
    23.8908  23.8908  25.3200  25.3200  25.3203  25.3203  25.8906  25.8906

     occupation numbers 
     1.0000   1.0000   1.0000   1.0000   1.0000   1.0000   1.0000   1.0000
     1.0000   1.0000   1.0000   1.0000   1.0000   1.0000   1.0000   1.0000
     1.0000   1.0000   1.0000   1.0000   1.0000   1.0000   1.0000   1.0000
     1.0000   1.0000   1.0000   1.0000   1.0000   1.0000   1.0000   1.0000
     1.0000   1.0000   1.0000   1.0000   1.0000   1.0000   1.0000   1.0000
     1.0000   1.0000   1.0000   1.0000   1.0000   1.0000   1.0000   1.0000
     1.0000   1.0000   1.0000   1.0000   1.0000   1.0000   1.0000   1.0000
     1.0000   1.0000   1.0000   1.0000   1.0000   1.0000   1.0000   1.0000

          k = 0.3182 0.4091-0.5000 (  8266 PWs)   bands (ev):

     1.1183   1.1183   1.1195   1.1195   1.7576   1.7576   1.7590   1.7590
     5.6821   5.6821   5.6822   5.6822   6.3230   6.3230   6.3232   6.3232
    14.4743  14.4743  14.4753  14.4753  15.2266  15.2266  15.2274  15.2274
    15.8429  15.8429  15.8431  15.8431  16.6290  16.6290  16.6292  16.6292
    19.4532  19.4532  19.4536  19.4536  19.5676  19.5676  19.5683  19.5683
    20.7786  20.7786  20.7793  20.7793  21.0686  21.0686  21.0689  21.0689
    22.4602  22.4602  22.4603  22.4603  23.3918  23.3918  23.3922  23.3922
    24.4112  24.4112  24.4115  24.4115  25.4148  25.4148  25.4151  25.4151

     occupation numbers 
     1.0000   1.0000   1.0000   1.0000   1.0000   1.0000   1.0000   1.0000
     1.0000   1.0000   1.0000   1.0000   1.0000   1.0000   1.0000   1.0000
     1.0000   1.0000   1.0000   1.0000   1.0000   1.0000   1.0000   1.0000
     1.0000   1.0000   1.0000   1.0000   1.0000   1.0000   1.0000   1.0000
     1.0000   1.0000   1.0000   1.0000   1.0000   1.0000   1.0000   1.0000
     1.0000   1.0000   1.0000   1.0000   1.0000   1.0000   1.0000   1.0000
     1.0000   1.0000   1.0000   1.0000   1.0000   1.0000   1.0000   1.0000
     1.0000   1.0000   1.0000   1.0000   1.0000   1.0000   1.0000   1.0000

          k = 0.3182-0.5000-0.5000 (  8268 PWs)   bands (ev):

     1.4537   1.4537   1.4537   1.4537   1.4537   1.4537   1.4564   1.4564
     5.8867   5.8867   5.8868   5.8868   5.8868   5.8868   5.8869   5.8869
    14.9048  14.9048  14.9050  14.9050  14.9052  14.9052  14.9066  14.9066
    16.6002  16.6002  16.6003  16.6003  16.6015  16.6015  16.6015  16.6015
    19.7546  19.7546  19.7548  19.7548  19.7550  19.7550  19.7552  19.7552
    20.5873  20.5873  20.5876  20.5876  20.5879  20.5879  20.5884  20.5884
    22.5199  22.5199  22.5200  22.5200  22.5201  22.5201  22.5204  22.5204
    24.7462  24.7462  24.7462  24.7462  24.7464  24.7464  24.7470  24.7470

     occupation numbers 
     1.0000   1.0000   1.0000   1.0000   1.0000   1.0000   1.0000   1.0000
     1.0000   1.0000   1.0000   1.0000   1.0000   1.0000   1.0000   1.0000
     1.0000   1.0000   1.0000   1.0000   1.0000   1.0000   1.0000   1.0000
     1.0000   1.0000   1.0000   1.0000   1.0000   1.0000   1.0000   1.0000
     1.0000   1.0000   1.0000   1.0000   1.0000   1.0000   1.0000   1.0000
     1.0000   1.0000   1.0000   1.0000   1.0000   1.0000   1.0000   1.0000
     1.0000   1.0000   1.0000   1.0000   1.0000   1.0000   1.0000   1.0000
     1.0000   1.0000   1.0000   1.0000   1.0000   1.0000   1.0000   1.0000

          k = 0.4091 0.4091 0.4091 (  8261 PWs)   bands (ev):

     1.0256   1.0256   1.6738   1.6738   1.6738   1.6738   1.6759   1.6759
     5.5737   5.5737   5.5737   5.5737   5.5738   5.5738   6.2236   6.2236
    15.2734  15.2734  15.2734  15.2734  15.2747  15.2747  16.0306  16.0306
    16.1623  16.1623  16.1631  16.1631  16.1632  16.1632  17.1527  17.1527
    19.1327  19.1327  19.1327  19.1327  19.1330  19.1330  20.0850  20.0850
    20.8869  20.8869  21.1874  21.1874  21.1882  21.1882  21.1883  21.1883
    21.5587  21.5587  22.6503  22.6503  22.6503  22.6503  22.6509  22.6509
    23.1735  23.1735  24.4687  24.4687  24.4687  24.4687  24.4687  24.4687

     occupation numbers 
     1.0000   1.0000   1.0000   1.0000   1.0000   1.0000   1.0000   1.0000
     1.0000   1.0000   1.0000   1.0000   1.0000   1.0000   1.0000   1.0000
     1.0000   1.0000   1.0000   1.0000   1.0000   1.0000   1.0000   1.0000
     1.0000   1.0000   1.0000   1.0000   1.0000   1.0000   1.0000   1.0000
     1.0000   1.0000   1.0000   1.0000   1.0000   1.0000   1.0000   1.0000
     1.0000   1.0000   1.0000   1.0000   1.0000   1.0000   1.0000   1.0000
     1.0000   1.0000   1.0000   1.0000   1.0000   1.0000   1.0000   1.0000
     1.0000   1.0000   1.0000   1.0000   1.0000   1.0000   1.0000   1.0000

          k = 0.4091 0.4091-0.5000 (  8274 PWs)   bands (ev):

     1.3647   1.3647   1.3660   1.3660   1.7285   1.7285   1.7299   1.7299
     5.4192   5.4192   5.4192   5.4192   5.7834   5.7834   5.7835   5.7835
    15.4330  15.4330  15.4340  15.4340  15.8634  15.8634  15.8643  15.8643
    16.3905  16.3905  16.3908  16.3908  16.9002  16.9002  16.9007  16.9007
    19.6255  19.6255  19.6258  19.6258  19.6561  19.6561  19.6568  19.6568
    20.5465  20.5465  20.5472  20.5472  20.8483  20.8483  20.8485  20.8485
    21.8700  21.8700  21.8702  21.8702  22.4638  22.4638  22.4643  22.4643
    23.4933  23.4933  23.4934  23.4934  24.1680  24.1680  24.1681  24.1681

     occupation numbers 
     1.0000   1.0000   1.0000   1.0000   1.0000   1.0000   1.0000   1.0000
     1.0000   1.0000   1.0000   1.0000   1.0000   1.0000   1.0000   1.0000
     1.0000   1.0000   1.0000   1.0000   1.0000   1.0000   1.0000   1.0000
     1.0000   1.0000   1.0000   1.0000   1.0000   1.0000   1.0000   1.0000
     1.0000   1.0000   1.0000   1.0000   1.0000   1.0000   1.0000   1.0000
     1.0000   1.0000   1.0000   1.0000   1.0000   1.0000   1.0000   1.0000
     1.0000   1.0000   1.0000   1.0000   1.0000   1.0000   1.0000   1.0000
     1.0000   1.0000   1.0000   1.0000   1.0000   1.0000   1.0000   1.0000

          k = 0.4091-0.5000-0.5000 (  8268 PWs)   bands (ev):

     1.5885   1.5885   1.5885   1.5885   1.5885   1.5885   1.5913   1.5913
     5.4595   5.4595   5.4595   5.4595   5.4595   5.4595   5.4596   5.4596
    15.8539  15.8539  15.8541  15.8541  15.8543  15.8543  15.8557  15.8557
    16.9600  16.9600  16.9600  16.9600  16.9612  16.9612  16.9613  16.9613
    19.8054  19.8054  19.8060  19.8060  19.8061  19.8061  19.8061  19.8061
    20.4542  20.4542  20.4543  20.4543  20.4548  20.4548  20.4550  20.4550
    21.8347  21.8347  21.8347  21.8347  21.8348  21.8348  21.8352  21.8352
    23.4694  23.4694  23.4694  23.4694  23.4695  23.4695  23.4697  23.4697

     occupation numbers 
     1.0000   1.0000   1.0000   1.0000   1.0000   1.0000   1.0000   1.0000
     1.0000   1.0000   1.0000   1.0000   1.0000   1.0000   1.0000   1.0000
     1.0000   1.0000   1.0000   1.0000   1.0000   1.0000   1.0000   1.0000
     1.0000   1.0000   1.0000   1.0000   1.0000   1.0000   1.0000   1.0000
     1.0000   1.0000   1.0000   1.0000   1.0000   1.0000   1.0000   1.0000
     1.0000   1.0000   1.0000   1.0000   1.0000   1.0000   1.0000   1.0000
     1.0000   1.0000   1.0000   1.0000   1.0000   1.0000   1.0000   1.0000
     1.0000   1.0000   1.0000   1.0000   1.0000   1.0000   1.0000   1.0000

          k =-0.5000-0.5000-0.5000 (  8240 PWs)   bands (ev):

     1.6440   1.6440   1.6440   1.6440   1.6440   1.6440   1.6468   1.6468
     5.3042   5.3042   5.3042   5.3042   5.3043   5.3043   5.3043   5.3043
    16.1508  16.1508  16.1511  16.1511  16.1511  16.1511  16.1527  16.1527
    17.2772  17.2772  17.2772  17.2772  17.2786  17.2786  17.2786  17.2786
    19.7100  19.7100  19.7106  19.7106  19.7107  19.7107  19.7107  19.7107
    20.4893  20.4893  20.4893  20.4893  20.4900  20.4900  20.4900  20.4900
    21.5467  21.5467  21.5467  21.5467  21.5467  21.5467  21.5472  21.5472
    22.9511  22.9511  22.9512  22.9512  22.9512  22.9512  22.9512  22.9512

     occupation numbers 
     1.0000   1.0000   1.0000   1.0000   1.0000   1.0000   1.0000   1.0000
     1.0000   1.0000   1.0000   1.0000   1.0000   1.0000   1.0000   1.0000
     1.0000   1.0000   1.0000   1.0000   1.0000   1.0000   1.0000   1.0000
     1.0000   1.0000   1.0000   1.0000   1.0000   1.0000   1.0000   1.0000
     1.0000   1.0000   1.0000   1.0000   1.0000   1.0000   1.0000   1.0000
     1.0000   1.0000   1.0000   1.0000   1.0000   1.0000   1.0000   1.0000
     1.0000   1.0000   1.0000   1.0000   1.0000   1.0000   1.0000   1.0000
     1.0000   1.0000   1.0000   1.0000   1.0000   1.0000   1.0000   1.0000

     highest occupied level (ev):    29.6177

!    total energy              =   -3131.16436904 Ry
     Harris-Foulkes estimate   =   -3131.16436930 Ry
     estimated scf accuracy    <       0.00000027 Ry

     total all-electron energy =   -119218.220497 Ry

     The total energy is the sum of the following terms:

     one-electron contribution =     153.67266169 Ry
     hartree contribution      =       5.40940772 Ry
     xc contribution           =    -157.40507314 Ry
     ewald contribution        =    -332.73169529 Ry
     one-center paw contrib.   =   -2800.10967003 Ry
      -> PAW hartree energy AE =      42.87612023 Ry
      -> PAW hartree energy PS =     -42.76325304 Ry
      -> PAW xc energy AE      =    -381.08155540 Ry
      -> PAW xc energy PS      =      22.83672109 Ry
      -> total E_H with PAW    =       5.52227491 Ry
      -> total E_XC with PAW   =    -515.64990745 Ry

     convergence has been achieved in  19 iterations

     Forces acting on atoms (cartesian axes, Ry/au):

     atom    1 type  1   force =     0.00000000   -0.00000000    0.00000000
     atom    2 type  1   force =     0.00000000    0.00000000    0.00000000
     atom    3 type  1   force =     0.00000000    0.00000000    0.00000000
     atom    4 type  1   force =     0.00000000    0.00000000   -0.00000000
     atom    5 type  2   force =     0.00000000    0.00000000   -0.00000000
     atom    6 type  2   force =     0.00000000    0.00000000    0.00000000
     atom    7 type  2   force =     0.00000000    0.00000000   -0.00000000
     atom    8 type  2   force =     0.00000000    0.00000000    0.00000000
     The non-local contrib.  to forces
     atom    1 type  1   force =     0.00000000    0.00000000    0.00000000
     atom    2 type  1   force =     0.00000000    0.00000000   -0.00000000
     atom    3 type  1   force =     0.00000000    0.00000000    0.00000000
     atom    4 type  1   force =     0.00000000    0.00000000    0.00000000
     atom    5 type  2   force =     0.00000000   -0.00000000    0.00000000
     atom    6 type  2   force =     0.00000000   -0.00000000    0.00000000
     atom    7 type  2   force =     0.00000000   -0.00000000    0.00000000
     atom    8 type  2   force =     0.00000000    0.00000000    0.00000000
     The ionic contribution  to forces
     atom    1 type  1   force =    -0.00000000   -0.00000000   -0.00000000
     atom    2 type  1   force =    -0.00000000    0.00000000    0.00000000
     atom    3 type  1   force =     0.00000000   -0.00000000    0.00000000
     atom    4 type  1   force =     0.00000000    0.00000000   -0.00000000
     atom    5 type  2   force =     0.00000000   -0.00000000   -0.00000000
     atom    6 type  2   force =     0.00000000    0.00000000    0.00000000
     atom    7 type  2   force =    -0.00000000   -0.00000000    0.00000000
     atom    8 type  2   force =    -0.00000000    0.00000000   -0.00000000
     The local contribution  to forces
     atom    1 type  1   force =    -0.00000000   -0.00000000   -0.00000000
     atom    2 type  1   force =    -0.00000000    0.00000000    0.00000000
     atom    3 type  1   force =     0.00000000   -0.00000000    0.00000000
     atom    4 type  1   force =     0.00000000    0.00000000   -0.00000000
     atom    5 type  2   force =     0.00000000   -0.00000000   -0.00000000
     atom    6 type  2   force =     0.00000000    0.00000000    0.00000000
     atom    7 type  2   force =    -0.00000000   -0.00000000    0.00000000
     atom    8 type  2   force =    -0.00000000    0.00000000   -0.00000000
     The core correction contribution to forces
     atom    1 type  1   force =    -0.00000000    0.00000000    0.00000000
     atom    2 type  1   force =    -0.00000000   -0.00000000    0.00000000
     atom    3 type  1   force =    -0.00000000   -0.00000000   -0.00000000
     atom    4 type  1   force =    -0.00000000   -0.00000000    0.00000000
     atom    5 type  2   force =    -0.00000000    0.00000000    0.00000000
     atom    6 type  2   force =    -0.00000000   -0.00000000    0.00000000
     atom    7 type  2   force =    -0.00000000   -0.00000000    0.00000000
     atom    8 type  2   force =    -0.00000000   -0.00000000    0.00000000
     The Hubbard contrib.    to forces
     atom    1 type  1   force =     0.00000000    0.00000000    0.00000000
     atom    2 type  1   force =     0.00000000    0.00000000    0.00000000
     atom    3 type  1   force =     0.00000000    0.00000000    0.00000000
     atom    4 type  1   force =     0.00000000    0.00000000    0.00000000
     atom    5 type  2   force =     0.00000000    0.00000000    0.00000000
     atom    6 type  2   force =     0.00000000    0.00000000    0.00000000
     atom    7 type  2   force =     0.00000000    0.00000000    0.00000000
     atom    8 type  2   force =     0.00000000    0.00000000    0.00000000
     The SCF correction term to forces
     atom    1 type  1   force =    -0.00000000    0.00000000   -0.00000000
     atom    2 type  1   force =    -0.00000000   -0.00000000   -0.00000000
     atom    3 type  1   force =     0.00000000   -0.00000000   -0.00000000
     atom    4 type  1   force =     0.00000000    0.00000000   -0.00000000
     atom    5 type  2   force =    -0.00000000   -0.00000000    0.00000000
     atom    6 type  2   force =     0.00000000   -0.00000000    0.00000000
     atom    7 type  2   force =    -0.00000000    0.00000000    0.00000000
     atom    8 type  2   force =    -0.00000000   -0.00000000    0.00000000

     Total force =     0.000000     Total SCF correction =     0.000000


     Computing stress (Cartesian axis) and pressure

     Message from routine stres:
     noncollinear stress + GGA not implemented

     Writing output data file CsIsalt.save/
 
     init_run     :     23.39s CPU     35.40s WALL (       1 calls)
     electrons    :   2706.14s CPU   4081.99s WALL (       1 calls)
     forces       :     27.20s CPU     39.16s WALL (       1 calls)

     Called by init_run:
     wfcinit      :     20.25s CPU     31.20s WALL (       1 calls)
     wfcinit:atom :      0.02s CPU      0.03s WALL (      56 calls)
     wfcinit:wfcr :     19.96s CPU     30.82s WALL (      56 calls)
     potinit      :      1.16s CPU      1.59s WALL (       1 calls)
     hinit0       :      0.64s CPU      0.98s WALL (       1 calls)

     Called by electrons:
     c_bands      :   2298.88s CPU   3484.21s WALL (      20 calls)
     sum_band     :    361.01s CPU    540.50s WALL (      20 calls)
     v_of_rho     :      0.93s CPU      1.54s WALL (      20 calls)
     v_h          :      0.15s CPU      0.25s WALL (      20 calls)
     v_xc         :      0.78s CPU      1.29s WALL (      21 calls)
     newd         :     25.05s CPU     29.15s WALL (      20 calls)
     PAW_pot      :     16.31s CPU     20.31s WALL (      20 calls)
     mix_rho      :      2.07s CPU      3.15s WALL (      20 calls)

     Called by c_bands:
     init_us_2    :      4.45s CPU      6.62s WALL (    2352 calls)
     cegterg      :   2207.31s CPU   3368.67s WALL (    1122 calls)

     Called by sum_band:
     sum_band:bec :     58.86s CPU     85.48s WALL (    1120 calls)
     addusdens    :      8.09s CPU     10.62s WALL (      20 calls)

     Called by *egterg:
     h_psi        :   1121.50s CPU   1666.59s WALL (    7515 calls)
     s_psi        :     58.19s CPU     78.13s WALL (    7515 calls)
     g_psi        :      2.26s CPU      2.35s WALL (    6337 calls)
     cdiaghg      :    424.65s CPU    669.31s WALL (    7403 calls)
     cegterg:over :    230.87s CPU    350.66s WALL (    6337 calls)
     cegterg:upda :    204.72s CPU    328.24s WALL (    6337 calls)
     cegterg:last :     37.23s CPU     59.24s WALL (    1355 calls)
     cdiaghg:chol :     23.65s CPU     33.05s WALL (    7403 calls)
     cdiaghg:inve :     13.27s CPU     21.64s WALL (    7403 calls)
     cdiaghg:para :    113.98s CPU    183.62s WALL (   14806 calls)

     Called by h_psi:
     h_psi:pot    :   1116.62s CPU   1661.47s WALL (    7515 calls)
     h_psi:calbec :     26.93s CPU     35.34s WALL (    7515 calls)
     vloc_psi     :   1032.07s CPU   1548.68s WALL (    7515 calls)
     add_vuspsi   :     57.58s CPU     77.40s WALL (    7515 calls)

     General routines
     calbec       :     40.60s CPU     55.02s WALL (    8859 calls)
     fft          :      3.73s CPU      5.86s WALL (     441 calls)
     ffts         :      3.35s CPU      4.86s WALL (     160 calls)
     fftw         :   1294.97s CPU   1951.51s WALL ( 1072644 calls)
     interpolate  :      1.93s CPU      2.88s WALL (      80 calls)
 
     Parallel routines
     fft_scatt_xy :     29.77s CPU     38.63s WALL ( 1073245 calls)
     fft_scatt_yz :   1137.47s CPU   1754.72s WALL ( 1073245 calls)

     PAW routines
     PAW_pot      :     16.31s CPU     20.31s WALL (      20 calls)
     PAW_symme    :      0.59s CPU      0.80s WALL (      40 calls)
 
     PWSCF        :  46m 9.35s CPU      1h 9m WALL

 
   This run was terminated on:  11:26:43  25Jan2021            

=------------------------------------------------------------------------------=
   JOB DONE.
=------------------------------------------------------------------------------=
