
     Program PWSCF v.6.7MaX starts on 31Jan2021 at 15:31:30 

     This program is part of the open-source Quantum ESPRESSO suite
     for quantum simulation of materials; please cite
         "P. Giannozzi et al., J. Phys.:Condens. Matter 21 395502 (2009);
         "P. Giannozzi et al., J. Phys.:Condens. Matter 29 465901 (2017);
          URL http://www.quantum-espresso.org", 
     in publications or presentations arising from this work. More details at
     http://www.quantum-espresso.org/quote

     Parallel version (MPI & OpenMP), running on      96 processor cores
     Number of MPI processes:                48
     Threads/MPI process:                     2

     MPI processes distributed on     2 nodes
     R & G space division:  proc/nbgrp/npool/nimage =      48
     Waiting for input...
     Reading input from standard input

     Current dimensions of program PWSCF are:
     Max number of different atomic species (ntypx) = 10
     Max number of k-points (npk) =  40000
     Max angular momentum in pseudopotentials (lmaxx) =  3
     file Cs.rel-pbesol-spn-rrkjus_psl.1.0.0.UPF: wavefunction(s)  5S 6S renormalized
     file I.rel-pbesol-n-rrkjus_psl.1.0.0.UPF: wavefunction(s)  5S renormalized

     Subspace diagonalization in iterative solution of the eigenvalue problem:
     a serial algorithm will be used

     Found symmetry operation: I + (  0.0000 -0.5000 -0.5000)
     This is a supercell, fractional translations are disabled

     Parallelization info
     --------------------
     sticks:   dense  smooth     PW     G-vecs:    dense   smooth      PW
     Min          51      41     11                 1925     1379     207
     Max          52      42     12                 1930     1383     212
     Sum        2469    1993    561                92469    66299   10059


     Title: 
     CsIbcc                                                                     


     bravais-lattice index     =            1
     lattice parameter (alat)  =       8.8160  a.u.
     unit-cell volume          =     685.1896 (a.u.)^3
     number of atoms/cell      =            8
     number of atomic types    =            2
     number of electrons       =        64.00
     number of Kohn-Sham states=           64
     kinetic-energy cutoff     =      80.0000  Ry
     charge density cutoff     =     400.0000  Ry
     scf convergence threshold =      1.0E-06
     mixing beta               =       0.3500
     number of iterations used =            8  plain     mixing
     Exchange-correlation= PBESOL
                           (   1   4  10   8   0   0   0)
     Non magnetic calculation with spin-orbit


     celldm(1)=   8.815973  celldm(2)=   0.000000  celldm(3)=   0.000000
     celldm(4)=   0.000000  celldm(5)=   0.000000  celldm(6)=   0.000000

     crystal axes: (cart. coord. in units of alat)
               a(1) = (   1.000000   0.000000   0.000000 )  
               a(2) = (   0.000000   1.000000   0.000000 )  
               a(3) = (   0.000000   0.000000   1.000000 )  

     reciprocal axes: (cart. coord. in units 2 pi/alat)
               b(1) = (  1.000000  0.000000  0.000000 )  
               b(2) = (  0.000000  1.000000  0.000000 )  
               b(3) = (  0.000000  0.000000  1.000000 )  


     PseudoPot. # 1 for Cs read from file:
     /scratch/cmalosso/degironcoli/pseudo/pseudo-usp/Cs.rel-pbesol-spn-rrkjus_psl.1.0.0.UPF
     MD5 check sum: 846889b67fb1b19751b5b37931589d70
     Pseudo is Ultrasoft + core correction, Zval =  9.0
     Generated using &quot;atomic&quot; code by A. Dal Corso  v.6.4.1
     Using radial grid of 1251 points, 15 beta functions with: 
                l(1) =   0
                l(2) =   0
                l(3) =   0
                l(4) =   1
                l(5) =   1
                l(6) =   1
                l(7) =   1
                l(8) =   2
                l(9) =   2
               l(10) =   2
               l(11) =   2
               l(12) =   3
               l(13) =   3
               l(14) =   3
               l(15) =   3
     Q(r) pseudized with 0 coefficients 


     PseudoPot. # 2 for I  read from file:
     /scratch/cmalosso/degironcoli/pseudo/pseudo-usp/I.rel-pbesol-n-rrkjus_psl.1.0.0.UPF
     MD5 check sum: 0f96c6bfb1b448f280658f96eb466b08
     Pseudo is Ultrasoft + core correction, Zval =  7.0
     Generated using &quot;atomic&quot; code by A. Dal Corso  v.6.3
     Using radial grid of 1247 points, 10 beta functions with: 
                l(1) =   0
                l(2) =   0
                l(3) =   1
                l(4) =   1
                l(5) =   1
                l(6) =   1
                l(7) =   2
                l(8) =   2
                l(9) =   2
               l(10) =   2
     Q(r) pseudized with 0 coefficients 


     atomic species   valence    mass     pseudopotential
        Cs             9.00   132.90000     Cs( 1.00)
        I              7.00   126.90000     I ( 1.00)

     48 Sym. Ops., with inversion, found


                                    s                        frac. trans.

      isym =  1     identity                                     

 cryst.   s( 1) = (     1          0          0      )
                  (     0          1          0      )
                  (     0          0          1      )

 cart.    s( 1) = (  1.0000000  0.0000000  0.0000000 )
                  (  0.0000000  1.0000000  0.0000000 )
                  (  0.0000000  0.0000000  1.0000000 )


      isym =  2     180 deg rotation - cart. axis [0,0,1]        

 cryst.   s( 2) = (    -1          0          0      )
                  (     0         -1          0      )
                  (     0          0          1      )

 cart.    s( 2) = ( -1.0000000  0.0000000  0.0000000 )
                  (  0.0000000 -1.0000000  0.0000000 )
                  (  0.0000000  0.0000000  1.0000000 )


      isym =  3     180 deg rotation - cart. axis [0,1,0]        

 cryst.   s( 3) = (    -1          0          0      )
                  (     0          1          0      )
                  (     0          0         -1      )

 cart.    s( 3) = ( -1.0000000  0.0000000  0.0000000 )
                  (  0.0000000  1.0000000  0.0000000 )
                  (  0.0000000  0.0000000 -1.0000000 )


      isym =  4     180 deg rotation - cart. axis [1,0,0]        

 cryst.   s( 4) = (     1          0          0      )
                  (     0         -1          0      )
                  (     0          0         -1      )

 cart.    s( 4) = (  1.0000000  0.0000000  0.0000000 )
                  (  0.0000000 -1.0000000  0.0000000 )
                  (  0.0000000  0.0000000 -1.0000000 )


      isym =  5     180 deg rotation - cart. axis [1,1,0]        

 cryst.   s( 5) = (     0          1          0      )
                  (     1          0          0      )
                  (     0          0         -1      )

 cart.    s( 5) = (  0.0000000  1.0000000  0.0000000 )
                  (  1.0000000  0.0000000  0.0000000 )
                  (  0.0000000  0.0000000 -1.0000000 )


      isym =  6     180 deg rotation - cart. axis [1,-1,0]       

 cryst.   s( 6) = (     0         -1          0      )
                  (    -1          0          0      )
                  (     0          0         -1      )

 cart.    s( 6) = (  0.0000000 -1.0000000  0.0000000 )
                  ( -1.0000000  0.0000000  0.0000000 )
                  (  0.0000000  0.0000000 -1.0000000 )


      isym =  7      90 deg rotation - cart. axis [0,0,-1]       

 cryst.   s( 7) = (     0         -1          0      )
                  (     1          0          0      )
                  (     0          0          1      )

 cart.    s( 7) = (  0.0000000  1.0000000  0.0000000 )
                  ( -1.0000000  0.0000000  0.0000000 )
                  (  0.0000000  0.0000000  1.0000000 )


      isym =  8      90 deg rotation - cart. axis [0,0,1]        

 cryst.   s( 8) = (     0          1          0      )
                  (    -1          0          0      )
                  (     0          0          1      )

 cart.    s( 8) = (  0.0000000 -1.0000000  0.0000000 )
                  (  1.0000000  0.0000000  0.0000000 )
                  (  0.0000000  0.0000000  1.0000000 )


      isym =  9     180 deg rotation - cart. axis [1,0,1]        

 cryst.   s( 9) = (     0          0          1      )
                  (     0         -1          0      )
                  (     1          0          0      )

 cart.    s( 9) = (  0.0000000  0.0000000  1.0000000 )
                  (  0.0000000 -1.0000000  0.0000000 )
                  (  1.0000000  0.0000000  0.0000000 )


      isym = 10     180 deg rotation - cart. axis [-1,0,1]       

 cryst.   s(10) = (     0          0         -1      )
                  (     0         -1          0      )
                  (    -1          0          0      )

 cart.    s(10) = (  0.0000000  0.0000000 -1.0000000 )
                  (  0.0000000 -1.0000000  0.0000000 )
                  ( -1.0000000  0.0000000  0.0000000 )


      isym = 11      90 deg rotation - cart. axis [0,1,0]        

 cryst.   s(11) = (     0          0         -1      )
                  (     0          1          0      )
                  (     1          0          0      )

 cart.    s(11) = (  0.0000000  0.0000000  1.0000000 )
                  (  0.0000000  1.0000000  0.0000000 )
                  ( -1.0000000  0.0000000  0.0000000 )


      isym = 12      90 deg rotation - cart. axis [0,-1,0]       

 cryst.   s(12) = (     0          0          1      )
                  (     0          1          0      )
                  (    -1          0          0      )

 cart.    s(12) = (  0.0000000  0.0000000 -1.0000000 )
                  (  0.0000000  1.0000000  0.0000000 )
                  (  1.0000000  0.0000000  0.0000000 )


      isym = 13     180 deg rotation - cart. axis [0,1,1]        

 cryst.   s(13) = (    -1          0          0      )
                  (     0          0          1      )
                  (     0          1          0      )

 cart.    s(13) = ( -1.0000000  0.0000000  0.0000000 )
                  (  0.0000000  0.0000000  1.0000000 )
                  (  0.0000000  1.0000000  0.0000000 )


      isym = 14     180 deg rotation - cart. axis [0,1,-1]       

 cryst.   s(14) = (    -1          0          0      )
                  (     0          0         -1      )
                  (     0         -1          0      )

 cart.    s(14) = ( -1.0000000  0.0000000  0.0000000 )
                  (  0.0000000  0.0000000 -1.0000000 )
                  (  0.0000000 -1.0000000  0.0000000 )


      isym = 15      90 deg rotation - cart. axis [-1,0,0]       

 cryst.   s(15) = (     1          0          0      )
                  (     0          0         -1      )
                  (     0          1          0      )

 cart.    s(15) = (  1.0000000  0.0000000  0.0000000 )
                  (  0.0000000  0.0000000  1.0000000 )
                  (  0.0000000 -1.0000000  0.0000000 )


      isym = 16      90 deg rotation - cart. axis [1,0,0]        

 cryst.   s(16) = (     1          0          0      )
                  (     0          0          1      )
                  (     0         -1          0      )

 cart.    s(16) = (  1.0000000  0.0000000  0.0000000 )
                  (  0.0000000  0.0000000 -1.0000000 )
                  (  0.0000000  1.0000000  0.0000000 )


      isym = 17     120 deg rotation - cart. axis [-1,-1,-1]     

 cryst.   s(17) = (     0          0          1      )
                  (     1          0          0      )
                  (     0          1          0      )

 cart.    s(17) = (  0.0000000  1.0000000  0.0000000 )
                  (  0.0000000  0.0000000  1.0000000 )
                  (  1.0000000  0.0000000  0.0000000 )


      isym = 18     120 deg rotation - cart. axis [-1,1,1]       

 cryst.   s(18) = (     0          0         -1      )
                  (    -1          0          0      )
                  (     0          1          0      )

 cart.    s(18) = (  0.0000000 -1.0000000  0.0000000 )
                  (  0.0000000  0.0000000  1.0000000 )
                  ( -1.0000000  0.0000000  0.0000000 )


      isym = 19     120 deg rotation - cart. axis [1,1,-1]       

 cryst.   s(19) = (     0          0         -1      )
                  (     1          0          0      )
                  (     0         -1          0      )

 cart.    s(19) = (  0.0000000  1.0000000  0.0000000 )
                  (  0.0000000  0.0000000 -1.0000000 )
                  ( -1.0000000  0.0000000  0.0000000 )


      isym = 20     120 deg rotation - cart. axis [1,-1,1]       

 cryst.   s(20) = (     0          0          1      )
                  (    -1          0          0      )
                  (     0         -1          0      )

 cart.    s(20) = (  0.0000000 -1.0000000  0.0000000 )
                  (  0.0000000  0.0000000 -1.0000000 )
                  (  1.0000000  0.0000000  0.0000000 )


      isym = 21     120 deg rotation - cart. axis [1,1,1]        

 cryst.   s(21) = (     0          1          0      )
                  (     0          0          1      )
                  (     1          0          0      )

 cart.    s(21) = (  0.0000000  0.0000000  1.0000000 )
                  (  1.0000000  0.0000000  0.0000000 )
                  (  0.0000000  1.0000000  0.0000000 )


      isym = 22     120 deg rotation - cart. axis [-1,1,-1]      

 cryst.   s(22) = (     0         -1          0      )
                  (     0          0         -1      )
                  (     1          0          0      )

 cart.    s(22) = (  0.0000000  0.0000000  1.0000000 )
                  ( -1.0000000  0.0000000  0.0000000 )
                  (  0.0000000 -1.0000000  0.0000000 )


      isym = 23     120 deg rotation - cart. axis [1,-1,-1]      

 cryst.   s(23) = (     0         -1          0      )
                  (     0          0          1      )
                  (    -1          0          0      )

 cart.    s(23) = (  0.0000000  0.0000000 -1.0000000 )
                  ( -1.0000000  0.0000000  0.0000000 )
                  (  0.0000000  1.0000000  0.0000000 )


      isym = 24     120 deg rotation - cart. axis [-1,-1,1]      

 cryst.   s(24) = (     0          1          0      )
                  (     0          0         -1      )
                  (    -1          0          0      )

 cart.    s(24) = (  0.0000000  0.0000000 -1.0000000 )
                  (  1.0000000  0.0000000  0.0000000 )
                  (  0.0000000 -1.0000000  0.0000000 )


      isym = 25     inversion                                    

 cryst.   s(25) = (    -1          0          0      )
                  (     0         -1          0      )
                  (     0          0         -1      )

 cart.    s(25) = ( -1.0000000  0.0000000  0.0000000 )
                  (  0.0000000 -1.0000000  0.0000000 )
                  (  0.0000000  0.0000000 -1.0000000 )


      isym = 26     inv. 180 deg rotation - cart. axis [0,0,1]   

 cryst.   s(26) = (     1          0          0      )
                  (     0          1          0      )
                  (     0          0         -1      )

 cart.    s(26) = (  1.0000000  0.0000000  0.0000000 )
                  (  0.0000000  1.0000000  0.0000000 )
                  (  0.0000000  0.0000000 -1.0000000 )


      isym = 27     inv. 180 deg rotation - cart. axis [0,1,0]   

 cryst.   s(27) = (     1          0          0      )
                  (     0         -1          0      )
                  (     0          0          1      )

 cart.    s(27) = (  1.0000000  0.0000000  0.0000000 )
                  (  0.0000000 -1.0000000  0.0000000 )
                  (  0.0000000  0.0000000  1.0000000 )


      isym = 28     inv. 180 deg rotation - cart. axis [1,0,0]   

 cryst.   s(28) = (    -1          0          0      )
                  (     0          1          0      )
                  (     0          0          1      )

 cart.    s(28) = ( -1.0000000  0.0000000  0.0000000 )
                  (  0.0000000  1.0000000  0.0000000 )
                  (  0.0000000  0.0000000  1.0000000 )


      isym = 29     inv. 180 deg rotation - cart. axis [1,1,0]   

 cryst.   s(29) = (     0         -1          0      )
                  (    -1          0          0      )
                  (     0          0          1      )

 cart.    s(29) = (  0.0000000 -1.0000000  0.0000000 )
                  ( -1.0000000  0.0000000  0.0000000 )
                  (  0.0000000  0.0000000  1.0000000 )


      isym = 30     inv. 180 deg rotation - cart. axis [1,-1,0]  

 cryst.   s(30) = (     0          1          0      )
                  (     1          0          0      )
                  (     0          0          1      )

 cart.    s(30) = (  0.0000000  1.0000000  0.0000000 )
                  (  1.0000000  0.0000000  0.0000000 )
                  (  0.0000000  0.0000000  1.0000000 )


      isym = 31     inv.  90 deg rotation - cart. axis [0,0,-1]  

 cryst.   s(31) = (     0          1          0      )
                  (    -1          0          0      )
                  (     0          0         -1      )

 cart.    s(31) = (  0.0000000 -1.0000000  0.0000000 )
                  (  1.0000000  0.0000000  0.0000000 )
                  (  0.0000000  0.0000000 -1.0000000 )


      isym = 32     inv.  90 deg rotation - cart. axis [0,0,1]   

 cryst.   s(32) = (     0         -1          0      )
                  (     1          0          0      )
                  (     0          0         -1      )

 cart.    s(32) = (  0.0000000  1.0000000  0.0000000 )
                  ( -1.0000000  0.0000000  0.0000000 )
                  (  0.0000000  0.0000000 -1.0000000 )


      isym = 33     inv. 180 deg rotation - cart. axis [1,0,1]   

 cryst.   s(33) = (     0          0         -1      )
                  (     0          1          0      )
                  (    -1          0          0      )

 cart.    s(33) = (  0.0000000  0.0000000 -1.0000000 )
                  (  0.0000000  1.0000000  0.0000000 )
                  ( -1.0000000  0.0000000  0.0000000 )


      isym = 34     inv. 180 deg rotation - cart. axis [-1,0,1]  

 cryst.   s(34) = (     0          0          1      )
                  (     0          1          0      )
                  (     1          0          0      )

 cart.    s(34) = (  0.0000000  0.0000000  1.0000000 )
                  (  0.0000000  1.0000000  0.0000000 )
                  (  1.0000000  0.0000000  0.0000000 )


      isym = 35     inv.  90 deg rotation - cart. axis [0,1,0]   

 cryst.   s(35) = (     0          0          1      )
                  (     0         -1          0      )
                  (    -1          0          0      )

 cart.    s(35) = (  0.0000000  0.0000000 -1.0000000 )
                  (  0.0000000 -1.0000000  0.0000000 )
                  (  1.0000000  0.0000000  0.0000000 )


      isym = 36     inv.  90 deg rotation - cart. axis [0,-1,0]  

 cryst.   s(36) = (     0          0         -1      )
                  (     0         -1          0      )
                  (     1          0          0      )

 cart.    s(36) = (  0.0000000  0.0000000  1.0000000 )
                  (  0.0000000 -1.0000000  0.0000000 )
                  ( -1.0000000  0.0000000  0.0000000 )


      isym = 37     inv. 180 deg rotation - cart. axis [0,1,1]   

 cryst.   s(37) = (     1          0          0      )
                  (     0          0         -1      )
                  (     0         -1          0      )

 cart.    s(37) = (  1.0000000  0.0000000  0.0000000 )
                  (  0.0000000  0.0000000 -1.0000000 )
                  (  0.0000000 -1.0000000  0.0000000 )


      isym = 38     inv. 180 deg rotation - cart. axis [0,1,-1]  

 cryst.   s(38) = (     1          0          0      )
                  (     0          0          1      )
                  (     0          1          0      )

 cart.    s(38) = (  1.0000000  0.0000000  0.0000000 )
                  (  0.0000000  0.0000000  1.0000000 )
                  (  0.0000000  1.0000000  0.0000000 )


      isym = 39     inv.  90 deg rotation - cart. axis [-1,0,0]  

 cryst.   s(39) = (    -1          0          0      )
                  (     0          0          1      )
                  (     0         -1          0      )

 cart.    s(39) = ( -1.0000000  0.0000000  0.0000000 )
                  (  0.0000000  0.0000000 -1.0000000 )
                  (  0.0000000  1.0000000  0.0000000 )


      isym = 40     inv.  90 deg rotation - cart. axis [1,0,0]   

 cryst.   s(40) = (    -1          0          0      )
                  (     0          0         -1      )
                  (     0          1          0      )

 cart.    s(40) = ( -1.0000000  0.0000000  0.0000000 )
                  (  0.0000000  0.0000000  1.0000000 )
                  (  0.0000000 -1.0000000  0.0000000 )


      isym = 41     inv. 120 deg rotation - cart. axis [-1,-1,-1]

 cryst.   s(41) = (     0          0         -1      )
                  (    -1          0          0      )
                  (     0         -1          0      )

 cart.    s(41) = (  0.0000000 -1.0000000  0.0000000 )
                  (  0.0000000  0.0000000 -1.0000000 )
                  ( -1.0000000  0.0000000  0.0000000 )


      isym = 42     inv. 120 deg rotation - cart. axis [-1,1,1]  

 cryst.   s(42) = (     0          0          1      )
                  (     1          0          0      )
                  (     0         -1          0      )

 cart.    s(42) = (  0.0000000  1.0000000  0.0000000 )
                  (  0.0000000  0.0000000 -1.0000000 )
                  (  1.0000000  0.0000000  0.0000000 )


      isym = 43     inv. 120 deg rotation - cart. axis [1,1,-1]  

 cryst.   s(43) = (     0          0          1      )
                  (    -1          0          0      )
                  (     0          1          0      )

 cart.    s(43) = (  0.0000000 -1.0000000  0.0000000 )
                  (  0.0000000  0.0000000  1.0000000 )
                  (  1.0000000  0.0000000  0.0000000 )


      isym = 44     inv. 120 deg rotation - cart. axis [1,-1,1]  

 cryst.   s(44) = (     0          0         -1      )
                  (     1          0          0      )
                  (     0          1          0      )

 cart.    s(44) = (  0.0000000  1.0000000  0.0000000 )
                  (  0.0000000  0.0000000  1.0000000 )
                  ( -1.0000000  0.0000000  0.0000000 )


      isym = 45     inv. 120 deg rotation - cart. axis [1,1,1]   

 cryst.   s(45) = (     0         -1          0      )
                  (     0          0         -1      )
                  (    -1          0          0      )

 cart.    s(45) = (  0.0000000  0.0000000 -1.0000000 )
                  ( -1.0000000  0.0000000  0.0000000 )
                  (  0.0000000 -1.0000000  0.0000000 )


      isym = 46     inv. 120 deg rotation - cart. axis [-1,1,-1] 

 cryst.   s(46) = (     0          1          0      )
                  (     0          0          1      )
                  (    -1          0          0      )

 cart.    s(46) = (  0.0000000  0.0000000 -1.0000000 )
                  (  1.0000000  0.0000000  0.0000000 )
                  (  0.0000000  1.0000000  0.0000000 )


      isym = 47     inv. 120 deg rotation - cart. axis [1,-1,-1] 

 cryst.   s(47) = (     0          1          0      )
                  (     0          0         -1      )
                  (     1          0          0      )

 cart.    s(47) = (  0.0000000  0.0000000  1.0000000 )
                  (  1.0000000  0.0000000  0.0000000 )
                  (  0.0000000 -1.0000000  0.0000000 )


      isym = 48     inv. 120 deg rotation - cart. axis [-1,-1,1] 

 cryst.   s(48) = (     0         -1          0      )
                  (     0          0          1      )
                  (     1          0          0      )

 cart.    s(48) = (  0.0000000  0.0000000  1.0000000 )
                  ( -1.0000000  0.0000000  0.0000000 )
                  (  0.0000000  1.0000000  0.0000000 )


     double point group O_h (m-3m) 
     there are 16 classes and  6 irreducible representations
     the character table:

       E     -E    8C3   -8C3   3C2  6C4   -6C4   6C2' i     -i    8S6   -8S6 
                               -3C2              -6C2'                        
G_6+   2.00 -2.00  1.00 -1.00  0.00  1.41 -1.41  0.00  2.00 -2.00  1.00 -1.00
G_7+   2.00 -2.00  1.00 -1.00  0.00 -1.41  1.41  0.00  2.00 -2.00  1.00 -1.00
G_8+   4.00 -4.00 -1.00  1.00  0.00  0.00  0.00  0.00  4.00 -4.00 -1.00  1.00
G_6-   2.00 -2.00  1.00 -1.00  0.00  1.41 -1.41  0.00 -2.00  2.00 -1.00  1.00
G_7-   2.00 -2.00  1.00 -1.00  0.00 -1.41  1.41  0.00 -2.00  2.00 -1.00  1.00
G_8-   4.00 -4.00 -1.00  1.00  0.00  0.00  0.00  0.00 -4.00  4.00  1.00 -1.00

        3s_h 6S4   -6S4   6s_d
       -3s_h             -6s_d
G_6+   0.00  1.41 -1.41  0.00
G_7+   0.00 -1.41  1.41  0.00
G_8+   0.00  0.00  0.00  0.00
G_6-   0.00 -1.41  1.41  0.00
G_7-   0.00  1.41 -1.41  0.00
G_8-   0.00  0.00  0.00  0.00

     the symmetry operations in each class and the name of the first element:

     E             1
          identity                                               
     -E           -1
          identity E                                             
     8C3          17   19   20   18   24   21   22   23
          120 deg rotation - cart. axis [-1,-1,-1]               
     -8C3        -17  -19  -20  -18  -24  -21  -22  -23
          120 deg rotation - cart. axis [-1,-1,-1] E             
      3C2 -3C2     2   -2    4   -4    3   -3
          180 deg rotation - cart. axis [0,0,1]                  
     6C4           7    8   15   16   12   11
           90 deg rotation - cart. axis [0,0,-1]                 
     -6C4         -7   -8  -15  -16  -12  -11
           90 deg rotation - cart. axis [0,0,-1] E               
      6C2'-6C2'    5   -5   -6    6   14  -13  -14   13   10   -9  -10    9
          180 deg rotation - cart. axis [1,1,0]                  
     i            25
          inversion                                              
     -i          -25
          inversion E                                            
     8S6          41   43   44   42   48   45   46   47
          inv. 120 deg rotation - cart. axis [-1,-1,-1]          
     -8S6        -41  -43  -44  -42  -48  -45  -46  -47
          inv. 120 deg rotation - cart. axis [-1,-1,-1] E        
      3s_h-3s_h   26  -26   28  -28   27  -27
          inv. 180 deg rotation - cart. axis [0,0,1]             
     6S4          31   32   39   40   36   35
          inv.  90 deg rotation - cart. axis [0,0,-1]            
     -6S4        -31  -32  -39  -40  -36  -35
          inv.  90 deg rotation - cart. axis [0,0,-1] E          
      6s_d-6s_d   29  -29  -30   30   38  -37  -38   37   34  -33  -34   33
          inv. 180 deg rotation - cart. axis [1,1,0]             

   Cartesian axes

     site n.     atom                  positions (alat units)
         1           Cs  tau(   1) = (   0.0000000   0.0000000   0.0000000  )
         2           Cs  tau(   2) = (   0.0000000   0.5000000   0.5000000  )
         3           Cs  tau(   3) = (   0.5000000   0.0000000   0.5000000  )
         4           Cs  tau(   4) = (   0.5000000   0.5000000   0.0000000  )
         5           I   tau(   5) = (   0.5000000   0.0000000   0.0000000  )
         6           I   tau(   6) = (   0.5000000   0.5000000   0.5000000  )
         7           I   tau(   7) = (   0.0000000   0.0000000   0.5000000  )
         8           I   tau(   8) = (   0.0000000   0.5000000   0.0000000  )

   Crystallographic axes

     site n.     atom                  positions (cryst. coord.)
         1           Cs  tau(   1) = (  0.0000000  0.0000000  0.0000000  )
         2           Cs  tau(   2) = (  0.0000000  0.5000000  0.5000000  )
         3           Cs  tau(   3) = (  0.5000000  0.0000000  0.5000000  )
         4           Cs  tau(   4) = (  0.5000000  0.5000000  0.0000000  )
         5           I   tau(   5) = (  0.5000000  0.0000000  0.0000000  )
         6           I   tau(   6) = (  0.5000000  0.5000000  0.5000000  )
         7           I   tau(   7) = (  0.0000000  0.0000000  0.5000000  )
         8           I   tau(   8) = (  0.0000000  0.5000000  0.0000000  )

     number of k points=    20
                       cart. coord. in units 2pi/alat
        k(    1) = (   0.0714286   0.0714286   0.0714286), wk =   0.0233236
        k(    2) = (   0.0714286   0.0714286   0.2142857), wk =   0.0699708
        k(    3) = (   0.0714286   0.0714286   0.3571429), wk =   0.0699708
        k(    4) = (   0.0714286   0.0714286  -0.5000000), wk =   0.0349854
        k(    5) = (   0.0714286   0.2142857   0.2142857), wk =   0.0699708
        k(    6) = (   0.0714286   0.2142857   0.3571429), wk =   0.1399417
        k(    7) = (   0.0714286   0.2142857  -0.5000000), wk =   0.0699708
        k(    8) = (   0.0714286   0.3571429   0.3571429), wk =   0.0699708
        k(    9) = (   0.0714286   0.3571429  -0.5000000), wk =   0.0699708
        k(   10) = (   0.0714286  -0.5000000  -0.5000000), wk =   0.0174927
        k(   11) = (   0.2142857   0.2142857   0.2142857), wk =   0.0233236
        k(   12) = (   0.2142857   0.2142857   0.3571429), wk =   0.0699708
        k(   13) = (   0.2142857   0.2142857  -0.5000000), wk =   0.0349854
        k(   14) = (   0.2142857   0.3571429   0.3571429), wk =   0.0699708
        k(   15) = (   0.2142857   0.3571429  -0.5000000), wk =   0.0699708
        k(   16) = (   0.2142857  -0.5000000  -0.5000000), wk =   0.0174927
        k(   17) = (   0.3571429   0.3571429   0.3571429), wk =   0.0233236
        k(   18) = (   0.3571429   0.3571429  -0.5000000), wk =   0.0349854
        k(   19) = (   0.3571429  -0.5000000  -0.5000000), wk =   0.0174927
        k(   20) = (  -0.5000000  -0.5000000  -0.5000000), wk =   0.0029155

                       cryst. coord.
        k(    1) = (   0.0714286   0.0714286   0.0714286), wk =   0.0233236
        k(    2) = (   0.0714286   0.0714286   0.2142857), wk =   0.0699708
        k(    3) = (   0.0714286   0.0714286   0.3571429), wk =   0.0699708
        k(    4) = (   0.0714286   0.0714286  -0.5000000), wk =   0.0349854
        k(    5) = (   0.0714286   0.2142857   0.2142857), wk =   0.0699708
        k(    6) = (   0.0714286   0.2142857   0.3571429), wk =   0.1399417
        k(    7) = (   0.0714286   0.2142857  -0.5000000), wk =   0.0699708
        k(    8) = (   0.0714286   0.3571429   0.3571429), wk =   0.0699708
        k(    9) = (   0.0714286   0.3571429  -0.5000000), wk =   0.0699708
        k(   10) = (   0.0714286  -0.5000000  -0.5000000), wk =   0.0174927
        k(   11) = (   0.2142857   0.2142857   0.2142857), wk =   0.0233236
        k(   12) = (   0.2142857   0.2142857   0.3571429), wk =   0.0699708
        k(   13) = (   0.2142857   0.2142857  -0.5000000), wk =   0.0349854
        k(   14) = (   0.2142857   0.3571429   0.3571429), wk =   0.0699708
        k(   15) = (   0.2142857   0.3571429  -0.5000000), wk =   0.0699708
        k(   16) = (   0.2142857  -0.5000000  -0.5000000), wk =   0.0174927
        k(   17) = (   0.3571429   0.3571429   0.3571429), wk =   0.0233236
        k(   18) = (   0.3571429   0.3571429  -0.5000000), wk =   0.0349854
        k(   19) = (   0.3571429  -0.5000000  -0.5000000), wk =   0.0174927
        k(   20) = (  -0.5000000  -0.5000000  -0.5000000), wk =   0.0029155

     Dense  grid:    92469 G-vectors     FFT dimensions: (  60,  60,  60)

     Smooth grid:    66299 G-vectors     FFT dimensions: (  54,  54,  54)

     Dynamical RAM for                 wfc:       0.34 MB

     Dynamical RAM for     wfc (w. buffer):       7.05 MB

     Dynamical RAM for           str. fact:       0.06 MB

     Dynamical RAM for           local pot:       0.00 MB

     Dynamical RAM for          nlocal pot:       1.02 MB

     Dynamical RAM for                qrad:      25.69 MB

     Dynamical RAM for          rho,v,vnew:       1.01 MB

     Dynamical RAM for               rhoin:       0.34 MB

     Dynamical RAM for            rho*nmix:       1.88 MB

     Dynamical RAM for           G-vectors:       0.12 MB

     Dynamical RAM for          h,s,v(r/c):       0.75 MB

     Dynamical RAM for          <psi|beta>:       0.76 MB

     Dynamical RAM for                 psi:       0.67 MB

     Dynamical RAM for                hpsi:       0.67 MB

     Dynamical RAM for                spsi:       0.67 MB

     Dynamical RAM for      wfcinit/wfcrot:       0.69 MB

     Dynamical RAM for           addusdens:      60.19 MB

     Dynamical RAM for          addusforce:      60.57 MB

     Dynamical RAM for         addusstress:      60.95 MB

     Estimated static dynamical RAM per process >      37.70 MB

     Estimated max dynamical RAM per process >      98.65 MB

     Estimated total dynamical RAM >       4.62 GB

     Initial potential from superposition of free atoms

     starting charge   63.84620, renormalised to   64.00000
     Starting wfcs are   72 randomized atomic wfcs

     total cpu time spent up to now is        8.6 secs

     Self-consistent Calculation

     iteration #  1     ecut=    80.00 Ry     beta= 0.35
     Davidson diagonalization with overlap
     ethr =  1.00E-02,  avg # of iterations =  8.9

     Threshold (ethr) on eigenvalues was too large:
     Diagonalizing with lowered threshold

     Davidson diagonalization with overlap
     c_bands:  5 eigenvalues not converged
     c_bands:  4 eigenvalues not converged
     c_bands:  1 eigenvalues not converged
     c_bands:  1 eigenvalues not converged
     c_bands:  1 eigenvalues not converged
     c_bands:  2 eigenvalues not converged
     c_bands:  1 eigenvalues not converged
     c_bands:  5 eigenvalues not converged
     c_bands:  1 eigenvalues not converged
     c_bands:  3 eigenvalues not converged
     ethr =  1.87E-04,  avg # of iterations = 16.1

     total cpu time spent up to now is       51.4 secs

     total energy              =    -341.47121196 Ry
     estimated scf accuracy    <       0.10980749 Ry

     iteration #  2     ecut=    80.00 Ry     beta= 0.35
     Davidson diagonalization with overlap
     ethr =  1.72E-04,  avg # of iterations =  4.0

     total cpu time spent up to now is       61.2 secs

     total energy              =    -341.46172975 Ry
     estimated scf accuracy    <       0.03513849 Ry

     iteration #  3     ecut=    80.00 Ry     beta= 0.35
     Davidson diagonalization with overlap
     c_bands:  1 eigenvalues not converged
     c_bands:  1 eigenvalues not converged
     ethr =  5.49E-05,  avg # of iterations =  8.4

     total cpu time spent up to now is       77.0 secs

     total energy              =    -341.49491499 Ry
     estimated scf accuracy    <       0.00198201 Ry

     iteration #  4     ecut=    80.00 Ry     beta= 0.35
     Davidson diagonalization with overlap
     c_bands:  1 eigenvalues not converged
     c_bands:  2 eigenvalues not converged
     c_bands:  4 eigenvalues not converged
     c_bands:  2 eigenvalues not converged
     c_bands:  1 eigenvalues not converged
     c_bands:  1 eigenvalues not converged
     ethr =  3.10E-06,  avg # of iterations = 16.0

     total cpu time spent up to now is      105.7 secs

     total energy              =    -341.50953281 Ry
     estimated scf accuracy    <       0.00329875 Ry

     iteration #  5     ecut=    80.00 Ry     beta= 0.35
     Davidson diagonalization with overlap
     c_bands:  2 eigenvalues not converged
     c_bands:  2 eigenvalues not converged
     ethr =  3.10E-06,  avg # of iterations = 10.2

     total cpu time spent up to now is      127.2 secs

     total energy              =    -341.49677280 Ry
     estimated scf accuracy    <       0.02715919 Ry

     iteration #  6     ecut=    80.00 Ry     beta= 0.35
     Davidson diagonalization with overlap
     c_bands:  2 eigenvalues not converged
     c_bands:  2 eigenvalues not converged
     c_bands:  1 eigenvalues not converged
     ethr =  3.10E-06,  avg # of iterations = 10.2

     total cpu time spent up to now is      145.5 secs

     total energy              =    -341.49946458 Ry
     estimated scf accuracy    <       0.00200632 Ry

     iteration #  7     ecut=    80.00 Ry     beta= 0.35
     Davidson diagonalization with overlap
     c_bands:  1 eigenvalues not converged
     ethr =  3.10E-06,  avg # of iterations =  3.0

     total cpu time spent up to now is      155.8 secs

     total energy              =    -341.49920284 Ry
     estimated scf accuracy    <       0.00077503 Ry

     iteration #  8     ecut=    80.00 Ry     beta= 0.35
     Davidson diagonalization with overlap
     c_bands:  2 eigenvalues not converged
     c_bands:  1 eigenvalues not converged
     ethr =  1.21E-06,  avg # of iterations =  8.8

     total cpu time spent up to now is      174.2 secs

     total energy              =    -341.50020026 Ry
     estimated scf accuracy    <       0.00007150 Ry

     iteration #  9     ecut=    80.00 Ry     beta= 0.35
     Davidson diagonalization with overlap
     c_bands:  2 eigenvalues not converged
     c_bands:  2 eigenvalues not converged
     c_bands:  3 eigenvalues not converged
     c_bands:  2 eigenvalues not converged
     c_bands:  3 eigenvalues not converged
     c_bands:  2 eigenvalues not converged
     c_bands:  1 eigenvalues not converged
     c_bands:  3 eigenvalues not converged
     ethr =  1.12E-07,  avg # of iterations = 13.8

     total cpu time spent up to now is      197.9 secs

     total energy              =    -341.50046450 Ry
     estimated scf accuracy    <       0.00022575 Ry

     iteration # 10     ecut=    80.00 Ry     beta= 0.35
     Davidson diagonalization with overlap
     c_bands:  2 eigenvalues not converged
     c_bands:  1 eigenvalues not converged
     ethr =  1.12E-07,  avg # of iterations =  8.2

     total cpu time spent up to now is      214.4 secs

     total energy              =    -341.50096958 Ry
     estimated scf accuracy    <       0.00005400 Ry

     iteration # 11     ecut=    80.00 Ry     beta= 0.35
     Davidson diagonalization with overlap
     c_bands:  2 eigenvalues not converged
     c_bands:  2 eigenvalues not converged
     ethr =  8.44E-08,  avg # of iterations =  3.4

     total cpu time spent up to now is      224.7 secs

     total energy              =    -341.50181715 Ry
     estimated scf accuracy    <       0.00013874 Ry

     iteration # 12     ecut=    80.00 Ry     beta= 0.35
     Davidson diagonalization with overlap
     c_bands:  2 eigenvalues not converged
     c_bands:  2 eigenvalues not converged
     ethr =  8.44E-08,  avg # of iterations =  6.0

     total cpu time spent up to now is      238.1 secs

     total energy              =    -341.50191078 Ry
     estimated scf accuracy    <       0.00026823 Ry

     iteration # 13     ecut=    80.00 Ry     beta= 0.35
     Davidson diagonalization with overlap
     c_bands:  2 eigenvalues not converged
     c_bands:  1 eigenvalues not converged
     ethr =  8.44E-08,  avg # of iterations =  3.1

     total cpu time spent up to now is      248.1 secs

     total energy              =    -341.50180704 Ry
     estimated scf accuracy    <       0.00019825 Ry

     iteration # 14     ecut=    80.00 Ry     beta= 0.35
     Davidson diagonalization with overlap
     ethr =  8.44E-08,  avg # of iterations =  6.8

     total cpu time spent up to now is      261.6 secs

     total energy              =    -341.50185718 Ry
     estimated scf accuracy    <       0.00002125 Ry

     iteration # 15     ecut=    80.00 Ry     beta= 0.35
     Davidson diagonalization with overlap
     c_bands:  1 eigenvalues not converged
     ethr =  3.32E-08,  avg # of iterations =  5.2

     total cpu time spent up to now is      272.7 secs

     total energy              =    -341.50186506 Ry
     estimated scf accuracy    <       0.00005719 Ry

     iteration # 16     ecut=    80.00 Ry     beta= 0.35
     Davidson diagonalization with overlap
     ethr =  3.32E-08,  avg # of iterations =  1.1

     total cpu time spent up to now is      281.5 secs

     total energy              =    -341.50187545 Ry
     estimated scf accuracy    <       0.00006585 Ry

     iteration # 17     ecut=    80.00 Ry     beta= 0.35
     Davidson diagonalization with overlap
     ethr =  3.32E-08,  avg # of iterations =  2.3

     total cpu time spent up to now is      290.8 secs

     total energy              =    -341.50182995 Ry
     estimated scf accuracy    <       0.00008438 Ry

     iteration # 18     ecut=    80.00 Ry     beta= 0.35
     Davidson diagonalization with overlap
     c_bands:  1 eigenvalues not converged
     ethr =  3.32E-08,  avg # of iterations =  7.2

     total cpu time spent up to now is      307.0 secs

     total energy              =    -341.50184339 Ry
     estimated scf accuracy    <       0.00002247 Ry

     iteration # 19     ecut=    80.00 Ry     beta= 0.35
     Davidson diagonalization with overlap
     ethr =  3.32E-08,  avg # of iterations =  1.8

     total cpu time spent up to now is      316.7 secs

     total energy              =    -341.50185745 Ry
     estimated scf accuracy    <       0.00002121 Ry

     iteration # 20     ecut=    80.00 Ry     beta= 0.35
     Davidson diagonalization with overlap
     c_bands:  1 eigenvalues not converged
     c_bands:  2 eigenvalues not converged
     c_bands:  3 eigenvalues not converged
     ethr =  3.31E-08,  avg # of iterations = 10.8

     total cpu time spent up to now is      335.2 secs

     total energy              =    -341.50189157 Ry
     estimated scf accuracy    <       0.00010943 Ry

     iteration # 21     ecut=    80.00 Ry     beta= 0.35
     Davidson diagonalization with overlap
     c_bands:  2 eigenvalues not converged
     ethr =  3.31E-08,  avg # of iterations =  3.8

     total cpu time spent up to now is      345.2 secs

     total energy              =    -341.50185937 Ry
     estimated scf accuracy    <       0.00013972 Ry

     iteration # 22     ecut=    80.00 Ry     beta= 0.35
     Davidson diagonalization with overlap
     c_bands:  1 eigenvalues not converged
     ethr =  3.31E-08,  avg # of iterations =  2.9

     total cpu time spent up to now is      355.0 secs

     total energy              =    -341.50182614 Ry
     estimated scf accuracy    <       0.00009260 Ry

     iteration # 23     ecut=    80.00 Ry     beta= 0.35
     Davidson diagonalization with overlap
     ethr =  3.31E-08,  avg # of iterations =  7.5

     total cpu time spent up to now is      370.2 secs

     total energy              =    -341.50182876 Ry
     estimated scf accuracy    <       0.00001475 Ry

     iteration # 24     ecut=    80.00 Ry     beta= 0.35
     Davidson diagonalization with overlap
     ethr =  2.31E-08,  avg # of iterations =  5.1

     total cpu time spent up to now is      384.6 secs

     End of self-consistent calculation

          k = 0.0714 0.0714 0.0714 (  8283 PWs)   bands (ev):

    -1.8012  -1.8012   2.5781   2.5781   2.5781   2.5781   2.5800   2.5800
     8.9395   8.9395   8.9398   8.9398   8.9400   8.9400  10.5775  10.5775
    10.5779  10.5779  10.5779  10.5779  12.5346  12.5346  12.5351  12.5351
    12.5352  12.5352  13.6464  13.6464  13.6466  13.6466  13.6468  13.6468
    14.4014  14.4014  15.9318  15.9318  16.6972  16.6972  19.4497  19.4497
    22.5079  22.5079  22.5079  22.5079  22.5079  22.5079  24.9501  24.9501
    26.2668  26.2668  26.3261  26.3261  26.9043  26.9043  27.0212  27.0212
    27.1373  27.1373  29.3009  29.3009  29.3010  29.3010  29.3011  29.3011

     occupation numbers 
     1.0000   1.0000   1.0000   1.0000   1.0000   1.0000   1.0000   1.0000
     1.0000   1.0000   1.0000   1.0000   1.0000   1.0000   1.0000   1.0000
     1.0000   1.0000   1.0000   1.0000   1.0000   1.0000   1.0000   1.0000
     1.0000   1.0000   1.0000   1.0000   1.0000   1.0000   1.0000   1.0000
     1.0000   1.0000   1.0000   1.0000   1.0000   1.0000   1.0000   1.0000
     1.0000   1.0000   1.0000   1.0000   1.0000   1.0000   1.0000   1.0000
     1.0000   1.0000   1.0000   1.0000   1.0000   1.0000   1.0000   1.0000
     1.0000   1.0000   1.0000   1.0000   1.0000   1.0000   1.0000   1.0000

          k = 0.0714 0.0714 0.2143 (  8300 PWs)   bands (ev):

    -1.5341  -1.5341   1.7837   1.7837   2.7016   2.7016   2.7029   2.7029
     8.7636   8.7636   8.7642   8.7642   9.4752   9.4752   9.6871   9.6871
     9.6874   9.6874  11.5833  11.5833  12.2586  12.2586  12.2588  12.2588
    12.8492  12.8492  13.3134  13.3134  13.9706  13.9706  15.3310  15.3310
    15.4537  15.4537  15.4539  15.4539  16.3805  16.3805  20.9510  20.9510
    22.7400  22.7400  23.1576  23.1576  23.5170  23.5170  23.5170  23.5170
    25.5879  25.5879  25.9173  25.9173  26.6777  26.6777  27.2068  27.2068
    27.2069  27.2069  27.9509  27.9509  28.1500  28.1500  28.6431  28.6431

     occupation numbers 
     1.0000   1.0000   1.0000   1.0000   1.0000   1.0000   1.0000   1.0000
     1.0000   1.0000   1.0000   1.0000   1.0000   1.0000   1.0000   1.0000
     1.0000   1.0000   1.0000   1.0000   1.0000   1.0000   1.0000   1.0000
     1.0000   1.0000   1.0000   1.0000   1.0000   1.0000   1.0000   1.0000
     1.0000   1.0000   1.0000   1.0000   1.0000   1.0000   1.0000   1.0000
     1.0000   1.0000   1.0000   1.0000   1.0000   1.0000   1.0000   1.0000
     1.0000   1.0000   1.0000   1.0000   1.0000   1.0000   1.0000   1.0000
     1.0000   1.0000   1.0000   1.0000   1.0000   1.0000   1.0000   1.0000

          k = 0.0714 0.0714 0.3571 (  8284 PWs)   bands (ev):

    -1.0057  -1.0057   0.7374   0.7374   2.8772   2.8772   2.8787   2.8787
     7.9984   7.9984   7.9991   7.9991   9.9489   9.9489   9.9493   9.9493
    10.1501  10.1501  11.4823  11.4823  11.4826  11.4826  12.0754  12.0754
    12.9144  12.9144  13.7167  13.7167  14.5632  14.5632  14.8540  14.8540
    15.6294  15.6294  17.9403  17.9403  17.9405  17.9405  19.8011  19.8011
    23.2004  23.2004  23.7215  23.7215  24.2216  24.2216  24.2217  24.2217
    24.7809  24.7809  25.2716  25.2716  25.2716  25.2716  26.1351  26.1351
    27.1398  27.1398  27.6970  27.6970  28.7188  28.7188  29.6163  29.6163

     occupation numbers 
     1.0000   1.0000   1.0000   1.0000   1.0000   1.0000   1.0000   1.0000
     1.0000   1.0000   1.0000   1.0000   1.0000   1.0000   1.0000   1.0000
     1.0000   1.0000   1.0000   1.0000   1.0000   1.0000   1.0000   1.0000
     1.0000   1.0000   1.0000   1.0000   1.0000   1.0000   1.0000   1.0000
     1.0000   1.0000   1.0000   1.0000   1.0000   1.0000   1.0000   1.0000
     1.0000   1.0000   1.0000   1.0000   1.0000   1.0000   1.0000   1.0000
     1.0000   1.0000   1.0000   1.0000   1.0000   1.0000   1.0000   1.0000
     1.0000   1.0000   1.0000   1.0000   1.0000   1.0000   1.0000   1.0000

          k = 0.0714 0.0714-0.5000 (  8296 PWs)   bands (ev):

    -0.2341  -0.2341  -0.2326  -0.2326   2.9655   2.9655   2.9671   2.9671
     7.6571   7.6571   7.6579   7.6579  10.4533  10.4533  10.4547  10.4547
    10.8265  10.8265  10.8278  10.8278  11.0035  11.0035  11.0041  11.0041
    13.7520  13.7520  13.7533  13.7533  14.7522  14.7522  14.7535  14.7535
    16.9974  16.9974  16.9976  16.9976  19.9766  19.9766  19.9770  19.9770
    22.0142  22.0142  22.0143  22.0143  23.8759  23.8759  23.8772  23.8772
    26.3837  26.3837  26.3838  26.3838  26.9250  26.9250  26.9262  26.9262
    27.3470  27.3470  27.3474  27.3474  27.5129  27.5129  27.5132  27.5132

     occupation numbers 
     1.0000   1.0000   1.0000   1.0000   1.0000   1.0000   1.0000   1.0000
     1.0000   1.0000   1.0000   1.0000   1.0000   1.0000   1.0000   1.0000
     1.0000   1.0000   1.0000   1.0000   1.0000   1.0000   1.0000   1.0000
     1.0000   1.0000   1.0000   1.0000   1.0000   1.0000   1.0000   1.0000
     1.0000   1.0000   1.0000   1.0000   1.0000   1.0000   1.0000   1.0000
     1.0000   1.0000   1.0000   1.0000   1.0000   1.0000   1.0000   1.0000
     1.0000   1.0000   1.0000   1.0000   1.0000   1.0000   1.0000   1.0000
     1.0000   1.0000   1.0000   1.0000   1.0000   1.0000   1.0000   1.0000

          k = 0.0714 0.2143 0.2143 (  8279 PWs)   bands (ev):

    -1.2697  -1.2697   1.9638   1.9638   1.9650   1.9650   2.7611   2.7611
     7.9444   7.9444   8.6519   8.6519   8.6529   8.6529   9.7112   9.7112
    11.3090  11.3090  11.3097  11.3097  12.0748  12.0748  12.5570  12.5570
    12.5577  12.5577  13.3060  13.3060  15.0744  15.0744  15.6673  15.6673
    15.7545  15.7545  15.7550  15.7550  16.8483  16.8483  21.4557  21.4557
    22.8519  22.8519  23.7384  23.7384  23.7385  23.7385  23.9577  23.9577
    24.5570  24.5570  25.8898  25.8898  26.4384  26.4384  26.4388  26.4388
    26.6980  26.6980  27.1888  27.1888  27.4467  27.4467  28.8479  28.8479

     occupation numbers 
     1.0000   1.0000   1.0000   1.0000   1.0000   1.0000   1.0000   1.0000
     1.0000   1.0000   1.0000   1.0000   1.0000   1.0000   1.0000   1.0000
     1.0000   1.0000   1.0000   1.0000   1.0000   1.0000   1.0000   1.0000
     1.0000   1.0000   1.0000   1.0000   1.0000   1.0000   1.0000   1.0000
     1.0000   1.0000   1.0000   1.0000   1.0000   1.0000   1.0000   1.0000
     1.0000   1.0000   1.0000   1.0000   1.0000   1.0000   1.0000   1.0000
     1.0000   1.0000   1.0000   1.0000   1.0000   1.0000   1.0000   1.0000
     1.0000   1.0000   1.0000   1.0000   1.0000   1.0000   1.0000   1.0000

          k = 0.0714 0.2143 0.3571 (  8286 PWs)   bands (ev):

    -0.7475  -0.7475   0.9607   0.9607   2.2778   2.2778   2.7743   2.7743
     7.2235   7.2235   7.6925   7.6925   9.0420   9.0420  10.1616  10.1616
    10.8200  10.8200  11.4355  11.4355  11.9868  11.9868  12.8066  12.8066
    13.0907  13.0907  13.6877  13.6877  14.3647  14.3647  16.4198  16.4198
    16.6128  16.6128  17.4653  17.4653  18.1869  18.1869  20.2548  20.2548
    23.1212  23.1212  23.4697  23.4697  24.0133  24.0133  24.1615  24.1615
    24.2665  24.2665  25.4426  25.4426  25.4650  25.4650  25.6156  25.6156
    26.3263  26.3263  27.1805  27.1805  28.3445  28.3445  28.8358  28.8358

     occupation numbers 
     1.0000   1.0000   1.0000   1.0000   1.0000   1.0000   1.0000   1.0000
     1.0000   1.0000   1.0000   1.0000   1.0000   1.0000   1.0000   1.0000
     1.0000   1.0000   1.0000   1.0000   1.0000   1.0000   1.0000   1.0000
     1.0000   1.0000   1.0000   1.0000   1.0000   1.0000   1.0000   1.0000
     1.0000   1.0000   1.0000   1.0000   1.0000   1.0000   1.0000   1.0000
     1.0000   1.0000   1.0000   1.0000   1.0000   1.0000   1.0000   1.0000
     1.0000   1.0000   1.0000   1.0000   1.0000   1.0000   1.0000   1.0000
     1.0000   1.0000   1.0000   1.0000   1.0000   1.0000   1.0000   1.0000

          k = 0.0714 0.2143-0.5000 (  8268 PWs)   bands (ev):

     0.0120   0.0120   0.0135   0.0135   2.6027   2.6027   2.6043   2.6043
     7.1324   7.1324   7.1333   7.1333   9.7862   9.7862   9.7871   9.7871
    10.8292  10.8292  10.8307  10.8307  12.3993  12.3993  12.4005  12.4005
    13.5730  13.5730  13.5744  13.5744  15.5522  15.5522  15.5525  15.5525
    17.8099  17.8099  17.8106  17.8106  19.6951  19.6951  19.6954  19.6954
    21.8004  21.8004  21.8005  21.8005  24.3590  24.3590  24.3600  24.3600
    24.8600  24.8600  24.8613  24.8613  25.9224  25.9224  25.9225  25.9225
    27.5344  27.5344  27.5347  27.5347  27.8755  27.8755  27.8767  27.8767

     occupation numbers 
     1.0000   1.0000   1.0000   1.0000   1.0000   1.0000   1.0000   1.0000
     1.0000   1.0000   1.0000   1.0000   1.0000   1.0000   1.0000   1.0000
     1.0000   1.0000   1.0000   1.0000   1.0000   1.0000   1.0000   1.0000
     1.0000   1.0000   1.0000   1.0000   1.0000   1.0000   1.0000   1.0000
     1.0000   1.0000   1.0000   1.0000   1.0000   1.0000   1.0000   1.0000
     1.0000   1.0000   1.0000   1.0000   1.0000   1.0000   1.0000   1.0000
     1.0000   1.0000   1.0000   1.0000   1.0000   1.0000   1.0000   1.0000
     1.0000   1.0000   1.0000   1.0000   1.0000   1.0000   1.0000   1.0000

          k = 0.0714 0.3571 0.3571 (  8296 PWs)   bands (ev):

    -0.2401  -0.2401   1.3814   1.3814   1.3826   1.3826   2.4558   2.4558
     6.8368   6.8368   7.9098   7.9098   7.9108   7.9108   9.5689   9.5689
    10.6456  10.6456  12.1311  12.1311  12.1318  12.1318  13.6343  13.6343
    14.0428  14.0428  14.0436  14.0436  14.5768  14.5768  17.2698  17.2698
    17.4746  17.4746  18.6675  18.6675  18.6681  18.6681  20.8650  20.8650
    21.5524  21.5524  22.5374  22.5374  22.5377  22.5377  23.1300  23.1300
    23.8115  23.8115  25.7956  25.7956  25.7957  25.7957  26.3853  26.3853
    26.4538  26.4538  27.5716  27.5716  27.5717  27.5717  28.2438  28.2438

     occupation numbers 
     1.0000   1.0000   1.0000   1.0000   1.0000   1.0000   1.0000   1.0000
     1.0000   1.0000   1.0000   1.0000   1.0000   1.0000   1.0000   1.0000
     1.0000   1.0000   1.0000   1.0000   1.0000   1.0000   1.0000   1.0000
     1.0000   1.0000   1.0000   1.0000   1.0000   1.0000   1.0000   1.0000
     1.0000   1.0000   1.0000   1.0000   1.0000   1.0000   1.0000   1.0000
     1.0000   1.0000   1.0000   1.0000   1.0000   1.0000   1.0000   1.0000
     1.0000   1.0000   1.0000   1.0000   1.0000   1.0000   1.0000   1.0000
     1.0000   1.0000   1.0000   1.0000   1.0000   1.0000   1.0000   1.0000

          k = 0.0714 0.3571-0.5000 (  8256 PWs)   bands (ev):

     0.4904   0.4904   0.4919   0.4919   1.9299   1.9299   1.9315   1.9315
     7.1098   7.1098   7.1108   7.1108   8.5696   8.5696   8.5706   8.5706
    11.3335  11.3335  11.3350  11.3350  12.8338  12.8338  12.8353  12.8353
    14.5623  14.5623  14.5633  14.5633  16.2611  16.2611  16.2612  16.2612
    19.1852  19.1852  19.1853  19.1853  19.4589  19.4589  19.4599  19.4599
    21.8038  21.8038  21.8051  21.8051  21.8290  21.8290  21.8291  21.8291
    24.7644  24.7644  24.7645  24.7645  26.4597  26.4597  26.4607  26.4607
    26.4927  26.4927  26.4939  26.4939  28.0459  28.0459  28.0461  28.0461

     occupation numbers 
     1.0000   1.0000   1.0000   1.0000   1.0000   1.0000   1.0000   1.0000
     1.0000   1.0000   1.0000   1.0000   1.0000   1.0000   1.0000   1.0000
     1.0000   1.0000   1.0000   1.0000   1.0000   1.0000   1.0000   1.0000
     1.0000   1.0000   1.0000   1.0000   1.0000   1.0000   1.0000   1.0000
     1.0000   1.0000   1.0000   1.0000   1.0000   1.0000   1.0000   1.0000
     1.0000   1.0000   1.0000   1.0000   1.0000   1.0000   1.0000   1.0000
     1.0000   1.0000   1.0000   1.0000   1.0000   1.0000   1.0000   1.0000
     1.0000   1.0000   1.0000   1.0000   1.0000   1.0000   1.0000   1.0000

          k = 0.0714-0.5000-0.5000 (  8280 PWs)   bands (ev):

     1.1614   1.1614   1.1617   1.1617   1.1618   1.1618   1.1644   1.1644
     7.6350   7.6350   7.6368   7.6368   7.6369   7.6369   7.6370   7.6370
    12.0274  12.0274  12.0282  12.0282  12.0283  12.0283  12.0304  12.0304
    16.2295  16.2295  16.2300  16.2300  16.2307  16.2307  16.2311  16.2311
    19.3266  19.3266  19.3268  19.3268  19.3271  19.3271  19.3277  19.3277
    21.5396  21.5396  21.5399  21.5399  21.5401  21.5401  21.5416  21.5416
    24.7241  24.7241  24.7243  24.7243  24.7246  24.7246  24.7249  24.7249
    27.8110  27.8110  27.8116  27.8117  27.8117  27.8117  27.8122  27.8122

     occupation numbers 
     1.0000   1.0000   1.0000   1.0000   1.0000   1.0000   1.0000   1.0000
     1.0000   1.0000   1.0000   1.0000   1.0000   1.0000   1.0000   1.0000
     1.0000   1.0000   1.0000   1.0000   1.0000   1.0000   1.0000   1.0000
     1.0000   1.0000   1.0000   1.0000   1.0000   1.0000   1.0000   1.0000
     1.0000   1.0000   1.0000   1.0000   1.0000   1.0000   1.0000   1.0000
     1.0000   1.0000   1.0000   1.0000   1.0000   1.0000   1.0000   1.0000
     1.0000   1.0000   1.0000   1.0000   1.0000   1.0000   1.0000   1.0000
     1.0000   1.0000   1.0000   1.0000   1.0000   1.0000   1.0000   1.0000

          k = 0.2143 0.2143 0.2143 (  8295 PWs)   bands (ev):

    -1.0086  -1.0086   2.1062   2.1062   2.1062   2.1062   2.1082   2.1082
     7.7160   7.7160   7.7172   7.7172   7.7173   7.7173  10.9014  10.9014
    11.3793  11.3793  11.3793  11.3793  11.3803  11.3803  13.5705  13.5705
    13.5711  13.5711  13.5712  13.5712  15.6433  15.6433  15.9794  15.9794
    15.9800  15.9800  15.9801  15.9801  16.7889  16.7889  21.3772  21.3772
    22.7105  22.7105  23.6350  23.6350  24.7264  24.7264  24.7264  24.7264
    24.7265  24.7265  24.7859  24.7859  26.0284  26.0284  26.0287  26.0287
    26.0287  26.0287  27.6292  27.6292  27.8055  27.8056  27.8056  27.8060

     occupation numbers 
     1.0000   1.0000   1.0000   1.0000   1.0000   1.0000   1.0000   1.0000
     1.0000   1.0000   1.0000   1.0000   1.0000   1.0000   1.0000   1.0000
     1.0000   1.0000   1.0000   1.0000   1.0000   1.0000   1.0000   1.0000
     1.0000   1.0000   1.0000   1.0000   1.0000   1.0000   1.0000   1.0000
     1.0000   1.0000   1.0000   1.0000   1.0000   1.0000   1.0000   1.0000
     1.0000   1.0000   1.0000   1.0000   1.0000   1.0000   1.0000   1.0000
     1.0000   1.0000   1.0000   1.0000   1.0000   1.0000   1.0000   1.0000
     1.0000   1.0000   1.0000   1.0000   1.0000   1.0000   1.0000   1.0000

          k = 0.2143 0.2143 0.3571 (  8279 PWs)   bands (ev):

    -0.4945  -0.4945   1.1656   1.1656   2.3141   2.3141   2.3155   2.3155
     6.8326   6.8326   6.8335   6.8335   7.9937   7.9937   9.6789   9.6789
    11.7688  11.7688  11.7697  11.7697  13.3960  13.3960  13.3988  13.3988
    13.3992  13.3992  14.1776  14.1776  15.2493  15.2493  16.6182  16.6182
    16.6763  16.6763  17.7320  17.7320  17.7321  17.7321  20.4740  20.4740
    22.3919  22.3919  23.5436  23.5436  23.5436  23.5436  23.6127  23.6127
    24.8084  24.8084  25.0978  25.0978  25.2217  25.2217  26.3068  26.3068
    26.3071  26.3071  26.6911  26.6911  27.1424  27.1424  27.9432  27.9435

     occupation numbers 
     1.0000   1.0000   1.0000   1.0000   1.0000   1.0000   1.0000   1.0000
     1.0000   1.0000   1.0000   1.0000   1.0000   1.0000   1.0000   1.0000
     1.0000   1.0000   1.0000   1.0000   1.0000   1.0000   1.0000   1.0000
     1.0000   1.0000   1.0000   1.0000   1.0000   1.0000   1.0000   1.0000
     1.0000   1.0000   1.0000   1.0000   1.0000   1.0000   1.0000   1.0000
     1.0000   1.0000   1.0000   1.0000   1.0000   1.0000   1.0000   1.0000
     1.0000   1.0000   1.0000   1.0000   1.0000   1.0000   1.0000   1.0000
     1.0000   1.0000   1.0000   1.0000   1.0000   1.0000   1.0000   1.0000

          k = 0.2143 0.2143-0.5000 (  8288 PWs)   bands (ev):

     0.2490   0.2490   0.2505   0.2505   2.4218   2.4218   2.4234   2.4234
     6.4808   6.4808   6.4818   6.4818   8.6790   8.6790   8.6801   8.6801
    12.1155  12.1155  12.1170  12.1170  12.9922  12.9922  12.9933  12.9933
    14.5193  14.5193  14.5206  14.5206  15.6202  15.6202  15.6206  15.6206
    18.0946  18.0946  18.0953  18.0953  19.6375  19.6375  19.6378  19.6378
    21.3934  21.3934  21.3935  21.3935  23.9767  23.9767  23.9772  23.9772
    24.3799  24.3799  24.3809  24.3809  26.1478  26.1478  26.1487  26.1487
    26.4935  26.4935  26.4947  26.4947  27.2064  27.2064  27.2072  27.2072

     occupation numbers 
     1.0000   1.0000   1.0000   1.0000   1.0000   1.0000   1.0000   1.0000
     1.0000   1.0000   1.0000   1.0000   1.0000   1.0000   1.0000   1.0000
     1.0000   1.0000   1.0000   1.0000   1.0000   1.0000   1.0000   1.0000
     1.0000   1.0000   1.0000   1.0000   1.0000   1.0000   1.0000   1.0000
     1.0000   1.0000   1.0000   1.0000   1.0000   1.0000   1.0000   1.0000
     1.0000   1.0000   1.0000   1.0000   1.0000   1.0000   1.0000   1.0000
     1.0000   1.0000   1.0000   1.0000   1.0000   1.0000   1.0000   1.0000
     1.0000   1.0000   1.0000   1.0000   1.0000   1.0000   1.0000   1.0000

          k = 0.2143 0.3571 0.3571 (  8268 PWs)   bands (ev):

     0.0003   0.0003   1.5358   1.5358   1.5371   1.5371   2.2566   2.2566
     6.2101   6.2101   6.9325   6.9325   6.9333   6.9333   8.4805   8.4805
    12.2528  12.2528  13.4366  13.4366  13.4370  13.4370  14.4282  14.4282
    14.4292  14.4292  14.8260  14.8260  14.9933  14.9933  17.1212  17.1212
    17.7572  17.7572  18.2746  18.2746  18.2754  18.2754  20.7648  20.7648
    21.6948  21.6948  22.1712  22.1712  22.6138  22.6138  22.6143  22.6143
    23.1886  23.1886  25.1411  25.1411  25.2467  25.2467  25.4839  25.4839
    25.4840  25.4840  27.4174  27.4174  27.4177  27.4177  27.7100  27.7102

     occupation numbers 
     1.0000   1.0000   1.0000   1.0000   1.0000   1.0000   1.0000   1.0000
     1.0000   1.0000   1.0000   1.0000   1.0000   1.0000   1.0000   1.0000
     1.0000   1.0000   1.0000   1.0000   1.0000   1.0000   1.0000   1.0000
     1.0000   1.0000   1.0000   1.0000   1.0000   1.0000   1.0000   1.0000
     1.0000   1.0000   1.0000   1.0000   1.0000   1.0000   1.0000   1.0000
     1.0000   1.0000   1.0000   1.0000   1.0000   1.0000   1.0000   1.0000
     1.0000   1.0000   1.0000   1.0000   1.0000   1.0000   1.0000   1.0000
     1.0000   1.0000   1.0000   1.0000   1.0000   1.0000   1.0000   1.0000

          k = 0.2143 0.3571-0.5000 (  8266 PWs)   bands (ev):

     0.7036   0.7036   0.7051   0.7051   1.9640   1.9640   1.9655   1.9655
     6.2573   6.2573   6.2584   6.2584   7.5248   7.5248   7.5259   7.5259
    12.8802  12.8802  12.8816  12.8816  14.2745  14.2745  14.2758  14.2758
    14.8397  14.8397  14.8406  14.8406  16.3486  16.3486  16.3488  16.3488
    19.2358  19.2358  19.2367  19.2367  19.3496  19.3496  19.3497  19.3497
    21.2700  21.2700  21.2700  21.2700  21.8493  21.8493  21.8506  21.8506
    23.5907  23.5907  23.5908  23.5908  25.2351  25.2351  25.2362  25.2362
    25.9735  25.9735  25.9747  25.9747  27.6646  27.6646  27.6658  27.6658

     occupation numbers 
     1.0000   1.0000   1.0000   1.0000   1.0000   1.0000   1.0000   1.0000
     1.0000   1.0000   1.0000   1.0000   1.0000   1.0000   1.0000   1.0000
     1.0000   1.0000   1.0000   1.0000   1.0000   1.0000   1.0000   1.0000
     1.0000   1.0000   1.0000   1.0000   1.0000   1.0000   1.0000   1.0000
     1.0000   1.0000   1.0000   1.0000   1.0000   1.0000   1.0000   1.0000
     1.0000   1.0000   1.0000   1.0000   1.0000   1.0000   1.0000   1.0000
     1.0000   1.0000   1.0000   1.0000   1.0000   1.0000   1.0000   1.0000
     1.0000   1.0000   1.0000   1.0000   1.0000   1.0000   1.0000   1.0000

          k = 0.2143-0.5000-0.5000 (  8272 PWs)   bands (ev):

     1.3195   1.3195   1.3197   1.3197   1.3197   1.3197   1.3225   1.3225
     6.6580   6.6580   6.6599   6.6599   6.6600   6.6600   6.6602   6.6602
    13.5707  13.5707  13.5716  13.5716  13.5717  13.5717  13.5735  13.5735
    16.4119  16.4119  16.4123  16.4123  16.4132  16.4132  16.4135  16.4135
    19.5596  19.5596  19.5599  19.5599  19.5601  19.5601  19.5609  19.5609
    21.0478  21.0478  21.0481  21.0481  21.0483  21.0483  21.0498  21.0498
    23.4905  23.4905  23.4907  23.4907  23.4911  23.4911  23.4914  23.4914
    26.6149  26.6149  26.6162  26.6162  26.6162  26.6162  26.6174  26.6174

     occupation numbers 
     1.0000   1.0000   1.0000   1.0000   1.0000   1.0000   1.0000   1.0000
     1.0000   1.0000   1.0000   1.0000   1.0000   1.0000   1.0000   1.0000
     1.0000   1.0000   1.0000   1.0000   1.0000   1.0000   1.0000   1.0000
     1.0000   1.0000   1.0000   1.0000   1.0000   1.0000   1.0000   1.0000
     1.0000   1.0000   1.0000   1.0000   1.0000   1.0000   1.0000   1.0000
     1.0000   1.0000   1.0000   1.0000   1.0000   1.0000   1.0000   1.0000
     1.0000   1.0000   1.0000   1.0000   1.0000   1.0000   1.0000   1.0000
     1.0000   1.0000   1.0000   1.0000   1.0000   1.0000   1.0000   1.0000

          k = 0.3571 0.3571 0.3571 (  8246 PWs)   bands (ev):

     0.4627   0.4627   1.7652   1.7652   1.7652   1.7652   1.7674   1.7674
     6.0206   6.0206   6.0220   6.0220   6.0221   6.0221   7.3278   7.3278
    14.3111  14.3111  14.3112  14.3112  14.3125  14.3125  15.3638  15.3638
    15.3646  15.3646  15.3647  15.3647  15.9458  15.9458  17.0813  17.0813
    18.3401  18.3401  18.3411  18.3411  18.3411  18.3411  20.6225  20.6225
    21.4676  21.4676  21.6126  21.6126  22.3397  22.3397  22.3400  22.3400
    22.3401  22.3401  23.5236  23.5236  23.8422  23.8422  23.8424  23.8424
    23.8432  23.8432  26.0022  26.0022  26.0033  26.0033  26.0034  26.0034

     occupation numbers 
     1.0000   1.0000   1.0000   1.0000   1.0000   1.0000   1.0000   1.0000
     1.0000   1.0000   1.0000   1.0000   1.0000   1.0000   1.0000   1.0000
     1.0000   1.0000   1.0000   1.0000   1.0000   1.0000   1.0000   1.0000
     1.0000   1.0000   1.0000   1.0000   1.0000   1.0000   1.0000   1.0000
     1.0000   1.0000   1.0000   1.0000   1.0000   1.0000   1.0000   1.0000
     1.0000   1.0000   1.0000   1.0000   1.0000   1.0000   1.0000   1.0000
     1.0000   1.0000   1.0000   1.0000   1.0000   1.0000   1.0000   1.0000
     1.0000   1.0000   1.0000   1.0000   1.0000   1.0000   1.0000   1.0000

          k = 0.3571 0.3571-0.5000 (  8264 PWs)   bands (ev):

     1.0935   1.0935   1.0950   1.0950   1.8866   1.8866   1.8882   1.8882
     5.6550   5.6550   5.6561   5.6561   6.4494   6.4494   6.4505   6.4505
    14.6165  14.6165  14.6179  14.6179  15.5637  15.5637  15.5648  15.5648
    15.5999  15.5999  15.6005  15.6005  16.5946  16.5946  16.5951  16.5951
    19.3610  19.3610  19.3619  19.3619  19.5270  19.5270  19.5273  19.5273
    20.7746  20.7746  20.7746  20.7746  21.5913  21.5913  21.5926  21.5926
    22.3627  22.3627  22.3629  22.3629  23.6502  23.6502  23.6514  23.6514
    24.1612  24.1612  24.1622  24.1622  25.4544  25.4544  25.4555  25.4555

     occupation numbers 
     1.0000   1.0000   1.0000   1.0000   1.0000   1.0000   1.0000   1.0000
     1.0000   1.0000   1.0000   1.0000   1.0000   1.0000   1.0000   1.0000
     1.0000   1.0000   1.0000   1.0000   1.0000   1.0000   1.0000   1.0000
     1.0000   1.0000   1.0000   1.0000   1.0000   1.0000   1.0000   1.0000
     1.0000   1.0000   1.0000   1.0000   1.0000   1.0000   1.0000   1.0000
     1.0000   1.0000   1.0000   1.0000   1.0000   1.0000   1.0000   1.0000
     1.0000   1.0000   1.0000   1.0000   1.0000   1.0000   1.0000   1.0000
     1.0000   1.0000   1.0000   1.0000   1.0000   1.0000   1.0000   1.0000

          k = 0.3571-0.5000-0.5000 (  8268 PWs)   bands (ev):

     1.5555   1.5555   1.5556   1.5556   1.5556   1.5556   1.5586   1.5586
     5.7410   5.7410   5.7430   5.7430   5.7431   5.7431   5.7432   5.7432
    15.4257  15.4257  15.4263  15.4263  15.4266  15.4266  15.4281  15.4281
    16.7875  16.7875  16.7877  16.7877  16.7889  16.7889  16.7890  16.7890
    19.8592  19.8592  19.8598  19.8598  19.8600  19.8600  19.8608  19.8608
    20.5432  20.5432  20.5433  20.5433  20.5438  20.5438  20.5450  20.5450
    22.2238  22.2238  22.2240  22.2240  22.2243  22.2243  22.2249  22.2249
    24.1830  24.1830  24.1844  24.1844  24.1844  24.1844  24.1851  24.1851

     occupation numbers 
     1.0000   1.0000   1.0000   1.0000   1.0000   1.0000   1.0000   1.0000
     1.0000   1.0000   1.0000   1.0000   1.0000   1.0000   1.0000   1.0000
     1.0000   1.0000   1.0000   1.0000   1.0000   1.0000   1.0000   1.0000
     1.0000   1.0000   1.0000   1.0000   1.0000   1.0000   1.0000   1.0000
     1.0000   1.0000   1.0000   1.0000   1.0000   1.0000   1.0000   1.0000
     1.0000   1.0000   1.0000   1.0000   1.0000   1.0000   1.0000   1.0000
     1.0000   1.0000   1.0000   1.0000   1.0000   1.0000   1.0000   1.0000
     1.0000   1.0000   1.0000   1.0000   1.0000   1.0000   1.0000   1.0000

          k =-0.5000-0.5000-0.5000 (  8240 PWs)   bands (ev):

     1.6812   1.6812   1.6812   1.6812   1.6812   1.6812   1.6844   1.6844
     5.3709   5.3709   5.3729   5.3729   5.3729   5.3729   5.3731   5.3731
    16.1990  16.1990  16.1993  16.1993  16.1993  16.1993  16.2010  16.2010
    17.3380  17.3380  17.3380  17.3380  17.3395  17.3395  17.3395  17.3395
    19.7518  19.7518  19.7531  19.7531  19.7538  19.7538  19.7538  19.7538
    20.5446  20.5446  20.5446  20.5446  20.5458  20.5458  20.5458  20.5458
    21.5680  21.5680  21.5680  21.5680  21.5685  21.5685  21.5691  21.5691
    23.0061  23.0061  23.0076  23.0076  23.0077  23.0077  23.0077  23.0077

     occupation numbers 
     1.0000   1.0000   1.0000   1.0000   1.0000   1.0000   1.0000   1.0000
     1.0000   1.0000   1.0000   1.0000   1.0000   1.0000   1.0000   1.0000
     1.0000   1.0000   1.0000   1.0000   1.0000   1.0000   1.0000   1.0000
     1.0000   1.0000   1.0000   1.0000   1.0000   1.0000   1.0000   1.0000
     1.0000   1.0000   1.0000   1.0000   1.0000   1.0000   1.0000   1.0000
     1.0000   1.0000   1.0000   1.0000   1.0000   1.0000   1.0000   1.0000
     1.0000   1.0000   1.0000   1.0000   1.0000   1.0000   1.0000   1.0000
     1.0000   1.0000   1.0000   1.0000   1.0000   1.0000   1.0000   1.0000

     highest occupied level (ev):    29.6163

!    total energy              =    -341.50183325 Ry
     estimated scf accuracy    <       0.00000075 Ry

     The total energy is the sum of the following terms:
     one-electron contribution =     143.16943556 Ry
     hartree contribution      =       5.45024405 Ry
     xc contribution           =    -157.38981612 Ry
     ewald contribution        =    -332.73169674 Ry

     convergence has been achieved in  24 iterations

     Forces acting on atoms (cartesian axes, Ry/au):

     atom    1 type  1   force =     0.00000000    0.00000000    0.00000000
     atom    2 type  1   force =     0.00000000    0.00000000    0.00000000
     atom    3 type  1   force =     0.00000000    0.00000000    0.00000000
     atom    4 type  1   force =     0.00000000    0.00000000    0.00000000
     atom    5 type  2   force =     0.00000000    0.00000000    0.00000000
     atom    6 type  2   force =     0.00000000    0.00000000    0.00000000
     atom    7 type  2   force =     0.00000000    0.00000000    0.00000000
     atom    8 type  2   force =     0.00000000    0.00000000    0.00000000
     The non-local contrib.  to forces
     atom    1 type  1   force =     0.00000000    0.00000000    0.00000000
     atom    2 type  1   force =     0.00000000    0.00000000    0.00000000
     atom    3 type  1   force =     0.00000000    0.00000000    0.00000000
     atom    4 type  1   force =     0.00000000    0.00000000    0.00000000
     atom    5 type  2   force =     0.00000000    0.00000000    0.00000000
     atom    6 type  2   force =     0.00000000    0.00000000    0.00000000
     atom    7 type  2   force =     0.00000000    0.00000000    0.00000000
     atom    8 type  2   force =     0.00000000    0.00000000    0.00000000
     The ionic contribution  to forces
     atom    1 type  1   force =    -0.00000000   -0.00000000   -0.00000000
     atom    2 type  1   force =    -0.00000000    0.00000000    0.00000000
     atom    3 type  1   force =     0.00000000   -0.00000000    0.00000000
     atom    4 type  1   force =     0.00000000    0.00000000   -0.00000000
     atom    5 type  2   force =     0.00000000   -0.00000000   -0.00000000
     atom    6 type  2   force =     0.00000000    0.00000000    0.00000000
     atom    7 type  2   force =    -0.00000000   -0.00000000    0.00000000
     atom    8 type  2   force =    -0.00000000    0.00000000   -0.00000000
     The local contribution  to forces
     atom    1 type  1   force =    -0.00000000   -0.00000000   -0.00000000
     atom    2 type  1   force =    -0.00000000    0.00000000    0.00000000
     atom    3 type  1   force =     0.00000000   -0.00000000    0.00000000
     atom    4 type  1   force =     0.00000000    0.00000000   -0.00000000
     atom    5 type  2   force =     0.00000000   -0.00000000   -0.00000000
     atom    6 type  2   force =     0.00000000    0.00000000    0.00000000
     atom    7 type  2   force =    -0.00000000   -0.00000000    0.00000000
     atom    8 type  2   force =    -0.00000000    0.00000000   -0.00000000
     The core correction contribution to forces
     atom    1 type  1   force =    -0.00000000   -0.00000000   -0.00000000
     atom    2 type  1   force =    -0.00000000    0.00000000    0.00000000
     atom    3 type  1   force =    -0.00000000   -0.00000000    0.00000000
     atom    4 type  1   force =    -0.00000000    0.00000000   -0.00000000
     atom    5 type  2   force =     0.00000000   -0.00000000   -0.00000000
     atom    6 type  2   force =     0.00000000    0.00000000    0.00000000
     atom    7 type  2   force =    -0.00000000   -0.00000000    0.00000000
     atom    8 type  2   force =    -0.00000000    0.00000000   -0.00000000
     The Hubbard contrib.    to forces
     atom    1 type  1   force =     0.00000000    0.00000000    0.00000000
     atom    2 type  1   force =     0.00000000    0.00000000    0.00000000
     atom    3 type  1   force =     0.00000000    0.00000000    0.00000000
     atom    4 type  1   force =     0.00000000    0.00000000    0.00000000
     atom    5 type  2   force =     0.00000000    0.00000000    0.00000000
     atom    6 type  2   force =     0.00000000    0.00000000    0.00000000
     atom    7 type  2   force =     0.00000000    0.00000000    0.00000000
     atom    8 type  2   force =     0.00000000    0.00000000    0.00000000
     The SCF correction term to forces
     atom    1 type  1   force =    -0.00000000   -0.00000000   -0.00000000
     atom    2 type  1   force =     0.00000000   -0.00000000   -0.00000000
     atom    3 type  1   force =    -0.00000000   -0.00000000   -0.00000000
     atom    4 type  1   force =    -0.00000000    0.00000000   -0.00000000
     atom    5 type  2   force =    -0.00000000   -0.00000000    0.00000000
     atom    6 type  2   force =     0.00000000    0.00000000   -0.00000000
     atom    7 type  2   force =     0.00000000    0.00000000   -0.00000000
     atom    8 type  2   force =     0.00000000    0.00000000    0.00000000

     Total force =     0.000000     Total SCF correction =     0.000000


     Computing stress (Cartesian axis) and pressure

          total   stress  (Ry/bohr**3)                   (kbar)     P=     4199.93
   0.02855054   0.00000000   0.00000000         4199.93        0.00        0.00
   0.00000000   0.02855054   0.00000000            0.00     4199.93        0.00
   0.00000000   0.00000000   0.02855054            0.00        0.00     4199.93

     kinetic stress (kbar)  15391.43      0.00      0.00
                                0.00  15391.43      0.00
                                0.00      0.00  15391.43

     local   stress (kbar)   6133.93     -0.00      0.00
                               -0.00   6133.93      0.00
                                0.00      0.00   6133.93

     nonloc. stress (kbar)  11702.69      0.00      0.00
                                0.00  11702.69      0.00
                                0.00      0.00  11702.69

     hartree stress (kbar)    390.04      0.00     -0.00
                                0.00    390.04      0.00
                               -0.00      0.00    390.04

     exc-cor stress (kbar)  17118.34      0.00      0.00
                                0.00  17118.34      0.00
                                0.00      0.00  17118.34

     corecor stress (kbar) -22724.84      0.00     -0.00
                                0.00 -22724.84     -0.00
                               -0.00     -0.00 -22724.84

     ewald   stress (kbar) -23811.67      0.00     -0.00
                                0.00 -23811.67      0.00
                               -0.00      0.00 -23811.67

     hubbard stress (kbar)      0.00      0.00      0.00
                                0.00      0.00      0.00
                                0.00      0.00      0.00

     DFT-D   stress (kbar)      0.00      0.00      0.00
                                0.00      0.00      0.00
                                0.00      0.00      0.00

     XDM     stress (kbar)      0.00      0.00      0.00
                                0.00      0.00      0.00
                                0.00      0.00      0.00

     dft-nl  stress (kbar)      0.00      0.00      0.00
                                0.00      0.00      0.00
                                0.00      0.00      0.00

     TS-vdW  stress (kbar)      0.00      0.00      0.00
                                0.00      0.00      0.00
                                0.00      0.00      0.00



     Writing output data file ./CsIbcc.save/

     init_run     :      9.62s CPU      7.08s WALL (       1 calls)
     electrons    :    605.91s CPU    376.39s WALL (       1 calls)
     forces       :     12.31s CPU     11.51s WALL (       1 calls)
     stress       :     36.79s CPU     20.05s WALL (       1 calls)

     Called by init_run:
     wfcinit      :      5.97s CPU      4.05s WALL (       1 calls)
     wfcinit:atom :      0.03s CPU      0.14s WALL (      20 calls)
     wfcinit:wfcr :      5.79s CPU      3.74s WALL (      20 calls)
     potinit      :      0.15s CPU      0.22s WALL (       1 calls)
     hinit0       :      1.76s CPU      1.19s WALL (       1 calls)

     Called by electrons:
     c_bands      :    471.04s CPU    278.14s WALL (      25 calls)
     sum_band     :     94.33s CPU     61.24s WALL (      25 calls)
     v_of_rho     :      0.46s CPU      0.28s WALL (      25 calls)
     v_h          :      0.05s CPU      0.03s WALL (      25 calls)
     v_xc         :      0.43s CPU      0.26s WALL (      27 calls)
     newd         :     39.42s CPU     35.64s WALL (      25 calls)
     mix_rho      :      0.45s CPU      0.33s WALL (      25 calls)

     Called by c_bands:
     init_us_2    :      1.72s CPU      0.96s WALL (    1060 calls)
     cegterg      :    458.68s CPU    268.05s WALL (     501 calls)

     Called by sum_band:
     sum_band:wei :      0.00s CPU      0.00s WALL (      25 calls)
     sum_band:loo :     84.60s CPU     54.14s WALL (      25 calls)
     sum_band:buf :      0.15s CPU      0.08s WALL (     500 calls)
     sum_band:ini :      0.67s CPU      0.34s WALL (     500 calls)
     sum_band:cal :      6.04s CPU      3.55s WALL (     500 calls)
     sum_band:bec :     35.02s CPU     25.57s WALL (     500 calls)
     addusdens    :      8.99s CPU      6.51s WALL (      25 calls)
     addusd:skk   :      0.02s CPU      0.01s WALL (      50 calls)
     addusd:dgemm :      2.52s CPU      3.16s WALL (      50 calls)
     addusd:qvan2 :      6.24s CPU      3.22s WALL (      50 calls)

     Called by *egterg:
     cdiaghg      :     39.49s CPU     22.14s WALL (    3979 calls)
     cegterg:over :     29.11s CPU     19.89s WALL (    3498 calls)
     cegterg:upda :      3.85s CPU      2.04s WALL (    3498 calls)
     cegterg:last :      7.31s CPU      3.76s WALL (    1741 calls)
     h_psi        :    322.69s CPU    179.92s WALL (    4019 calls)
     s_psi        :     43.91s CPU     31.78s WALL (    4019 calls)
     g_psi        :      0.56s CPU      0.28s WALL (    3498 calls)

     Called by h_psi:
     h_psi:calbec :     28.29s CPU     17.22s WALL (    4019 calls)
     vloc_psi     :    265.26s CPU    141.50s WALL (    4019 calls)
     add_vuspsi   :     28.65s CPU     20.95s WALL (    4019 calls)

     General routines
     calbec       :     36.94s CPU     22.94s WALL (    4619 calls)
     fft          :      0.92s CPU      0.55s WALL (     568 calls)
     ffts         :      0.57s CPU      0.41s WALL (     200 calls)
     fftw         :    286.50s CPU    154.91s WALL (  556972 calls)
     interpolate  :      0.22s CPU      0.11s WALL (     100 calls)

     Parallel routines
     fft_scatt_xy :     14.43s CPU      7.44s WALL (  557740 calls)
     fft_scatt_yz :    192.03s CPU    106.00s WALL (  557740 calls)

     PWSCF        :  11m 7.78s CPU   6m59.67s WALL


   This run was terminated on:  15:38:29  31Jan2021            

=------------------------------------------------------------------------------=
   JOB DONE.
=------------------------------------------------------------------------------=
