
     Program PWSCF v.6.4.1 starts on 23Jan2021 at 18:48:53 

     This program is part of the open-source Quantum ESPRESSO suite
     for quantum simulation of materials; please cite
         "P. Giannozzi et al., J. Phys.:Condens. Matter 21 395502 (2009);
         "P. Giannozzi et al., J. Phys.:Condens. Matter 29 465901 (2017);
          URL http://www.quantum-espresso.org", 
     in publications or presentations arising from this work. More details at
     http://www.quantum-espresso.org/quote

     Parallel version (MPI & OpenMP), running on      48 processor cores
     Number of MPI processes:                24
     Threads/MPI process:                     2

     MPI processes distributed on     1 nodes
     R & G space division:  proc/nbgrp/npool/nimage =      24
     Waiting for input...
     Reading input from standard input

     Current dimensions of program PWSCF are:
     Max number of different atomic species (ntypx) = 10
     Max number of k-points (npk) =  40000
     Max angular momentum in pseudopotentials (lmaxx) =  3
               file Sn.rel-pbesol-dn-kjpaw_psl.1.0.0.UPF: wavefunction(s)  5S 5P 5P 4D 4D renormalized
               file I.rel-pbesol-n-kjpaw_psl.1.0.0.UPF: wavefunction(s)  5S renormalized

     Subspace diagonalization in iterative solution of the eigenvalue problem:
     one sub-group per band group will be used
     scalapack distributed-memory algorithm (size of sub-group:  3*  3 procs)

 
     Parallelization info
     --------------------
     sticks:   dense  smooth     PW     G-vecs:    dense   smooth      PW
     Min         248     166     45                14418     7840    1113
     Max         249     167     46                14423     7843    1116
     Sum        5957    3985   1085               346083   188183   26745
 

     Title: 
     SnI2                                                                       


     bravais-lattice index     =            1
     lattice parameter (alat)  =      14.4199  a.u.
     unit-cell volume          =    2998.4083 (a.u.)^3
     number of atoms/cell      =            6
     number of atomic types    =            2
     number of electrons       =        56.00
     number of Kohn-Sham states=           56
     kinetic-energy cutoff     =      60.0000  Ry
     charge density cutoff     =     360.0000  Ry
     convergence threshold     =      1.0E-06
     mixing beta               =       0.3500
     number of iterations used =            8  plain     mixing
     Exchange-correlation      = SLA PW PSX PSC ( 1  4 10  8 0 0)
     Non magnetic calculation with spin-orbit


     celldm(1)=  14.419945  celldm(2)=   0.000000  celldm(3)=   0.000000
     celldm(4)=   0.000000  celldm(5)=   0.000000  celldm(6)=   0.000000

     crystal axes: (cart. coord. in units of alat)
               a(1) = (   1.000000   0.000000   0.000000 )  
               a(2) = (   0.000000   1.000000   0.000000 )  
               a(3) = (   0.000000   0.000000   1.000000 )  

     reciprocal axes: (cart. coord. in units 2 pi/alat)
               b(1) = (  1.000000  0.000000  0.000000 )  
               b(2) = (  0.000000  1.000000  0.000000 )  
               b(3) = (  0.000000  0.000000  1.000000 )  


     PseudoPot. # 1 for Sn read from file:
     /marconi_scratch/userexternal/cmalosso/degironcoli/pseudo/Sn.rel-pbesol-dn-kjpaw_psl.1.0.0.UPF
     MD5 check sum: e69eff64f15ae39ad43ef58bacbfdf88
     Pseudo is Projector augmented-wave + core cor, Zval = 14.0
     Generated using "atomic" code by A. Dal Corso v.6.3
     Shape of augmentation charge: PSQ
     Using radial grid of 1243 points, 10 beta functions with: 
                l(1) =   0
                l(2) =   0
                l(3) =   1
                l(4) =   1
                l(5) =   1
                l(6) =   1
                l(7) =   2
                l(8) =   2
                l(9) =   2
               l(10) =   2
     Q(r) pseudized with 0 coefficients 


     PseudoPot. # 2 for I  read from file:
     /marconi_scratch/userexternal/cmalosso/degironcoli/pseudo/I.rel-pbesol-n-kjpaw_psl.1.0.0.UPF
     MD5 check sum: 4478c427bd443f303eca1937a163b991
     Pseudo is Projector augmented-wave + core cor, Zval =  7.0
     Generated using "atomic" code by A. Dal Corso v.6.3
     Shape of augmentation charge: PSQ
     Using radial grid of 1247 points, 10 beta functions with: 
                l(1) =   0
                l(2) =   0
                l(3) =   1
                l(4) =   1
                l(5) =   1
                l(6) =   1
                l(7) =   2
                l(8) =   2
                l(9) =   2
               l(10) =   2
     Q(r) pseudized with 0 coefficients 


     atomic species   valence    mass     pseudopotential
        Sn            14.00   118.70000     Sn( 1.00)
        I              7.00   126.90000     I ( 1.00)

     16 Sym. Ops., with inversion, found ( 8 have fractional translation)


                                    s                        frac. trans.

      isym =  1     identity                                     

 cryst.   s( 1) = (     1          0          0      )
                  (     0          1          0      )
                  (     0          0          1      )

 cart.    s( 1) = (  1.0000000  0.0000000  0.0000000 )
                  (  0.0000000  1.0000000  0.0000000 )
                  (  0.0000000  0.0000000  1.0000000 )


      isym =  2     180 deg rotation - cart. axis [0,0,1]        

 cryst.   s( 2) = (    -1          0          0      )
                  (     0         -1          0      )
                  (     0          0          1      )

 cart.    s( 2) = ( -1.0000000  0.0000000  0.0000000 )
                  (  0.0000000 -1.0000000  0.0000000 )
                  (  0.0000000  0.0000000  1.0000000 )


      isym =  3     180 deg rotation - cart. axis [0,1,0]        

 cryst.   s( 3) = (    -1          0          0      )    f =(  0.5000000 )
                  (     0          1          0      )       ( -0.5000000 )
                  (     0          0         -1      )       (  0.5000000 )

 cart.    s( 3) = ( -1.0000000  0.0000000  0.0000000 )    f =(  0.5000000 )
                  (  0.0000000  1.0000000  0.0000000 )       ( -0.5000000 )
                  (  0.0000000  0.0000000 -1.0000000 )       (  0.5000000 )


      isym =  4     180 deg rotation - cart. axis [1,0,0]        

 cryst.   s( 4) = (     1          0          0      )    f =( -0.5000000 )
                  (     0         -1          0      )       (  0.5000000 )
                  (     0          0         -1      )       (  0.5000000 )

 cart.    s( 4) = (  1.0000000  0.0000000  0.0000000 )    f =( -0.5000000 )
                  (  0.0000000 -1.0000000  0.0000000 )       (  0.5000000 )
                  (  0.0000000  0.0000000 -1.0000000 )       (  0.5000000 )


      isym =  5     180 deg rotation - cart. axis [1,1,0]        

 cryst.   s( 5) = (     0          1          0      )
                  (     1          0          0      )
                  (     0          0         -1      )

 cart.    s( 5) = (  0.0000000  1.0000000  0.0000000 )
                  (  1.0000000  0.0000000  0.0000000 )
                  (  0.0000000  0.0000000 -1.0000000 )


      isym =  6     180 deg rotation - cart. axis [1,-1,0]       

 cryst.   s( 6) = (     0         -1          0      )
                  (    -1          0          0      )
                  (     0          0         -1      )

 cart.    s( 6) = (  0.0000000 -1.0000000  0.0000000 )
                  ( -1.0000000  0.0000000  0.0000000 )
                  (  0.0000000  0.0000000 -1.0000000 )


      isym =  7      90 deg rotation - cart. axis [0,0,-1]       

 cryst.   s( 7) = (     0         -1          0      )    f =( -0.5000000 )
                  (     1          0          0      )       (  0.5000000 )
                  (     0          0          1      )       ( -0.5000000 )

 cart.    s( 7) = (  0.0000000  1.0000000  0.0000000 )    f =( -0.5000000 )
                  ( -1.0000000  0.0000000  0.0000000 )       (  0.5000000 )
                  (  0.0000000  0.0000000  1.0000000 )       ( -0.5000000 )


      isym =  8      90 deg rotation - cart. axis [0,0,1]        

 cryst.   s( 8) = (     0          1          0      )    f =(  0.5000000 )
                  (    -1          0          0      )       ( -0.5000000 )
                  (     0          0          1      )       ( -0.5000000 )

 cart.    s( 8) = (  0.0000000 -1.0000000  0.0000000 )    f =(  0.5000000 )
                  (  1.0000000  0.0000000  0.0000000 )       ( -0.5000000 )
                  (  0.0000000  0.0000000  1.0000000 )       ( -0.5000000 )


      isym =  9     inversion                                    

 cryst.   s( 9) = (    -1          0          0      )
                  (     0         -1          0      )
                  (     0          0         -1      )

 cart.    s( 9) = ( -1.0000000  0.0000000  0.0000000 )
                  (  0.0000000 -1.0000000  0.0000000 )
                  (  0.0000000  0.0000000 -1.0000000 )


      isym = 10     inv. 180 deg rotation - cart. axis [0,0,1]   

 cryst.   s(10) = (     1          0          0      )
                  (     0          1          0      )
                  (     0          0         -1      )

 cart.    s(10) = (  1.0000000  0.0000000  0.0000000 )
                  (  0.0000000  1.0000000  0.0000000 )
                  (  0.0000000  0.0000000 -1.0000000 )


      isym = 11     inv. 180 deg rotation - cart. axis [0,1,0]   

 cryst.   s(11) = (     1          0          0      )    f =( -0.5000000 )
                  (     0         -1          0      )       (  0.5000000 )
                  (     0          0          1      )       ( -0.5000000 )

 cart.    s(11) = (  1.0000000  0.0000000  0.0000000 )    f =( -0.5000000 )
                  (  0.0000000 -1.0000000  0.0000000 )       (  0.5000000 )
                  (  0.0000000  0.0000000  1.0000000 )       ( -0.5000000 )


      isym = 12     inv. 180 deg rotation - cart. axis [1,0,0]   

 cryst.   s(12) = (    -1          0          0      )    f =(  0.5000000 )
                  (     0          1          0      )       ( -0.5000000 )
                  (     0          0          1      )       ( -0.5000000 )

 cart.    s(12) = ( -1.0000000  0.0000000  0.0000000 )    f =(  0.5000000 )
                  (  0.0000000  1.0000000  0.0000000 )       ( -0.5000000 )
                  (  0.0000000  0.0000000  1.0000000 )       ( -0.5000000 )


      isym = 13     inv. 180 deg rotation - cart. axis [1,1,0]   

 cryst.   s(13) = (     0         -1          0      )
                  (    -1          0          0      )
                  (     0          0          1      )

 cart.    s(13) = (  0.0000000 -1.0000000  0.0000000 )
                  ( -1.0000000  0.0000000  0.0000000 )
                  (  0.0000000  0.0000000  1.0000000 )


      isym = 14     inv. 180 deg rotation - cart. axis [1,-1,0]  

 cryst.   s(14) = (     0          1          0      )
                  (     1          0          0      )
                  (     0          0          1      )

 cart.    s(14) = (  0.0000000  1.0000000  0.0000000 )
                  (  1.0000000  0.0000000  0.0000000 )
                  (  0.0000000  0.0000000  1.0000000 )


      isym = 15     inv.  90 deg rotation - cart. axis [0,0,-1]  

 cryst.   s(15) = (     0          1          0      )    f =(  0.5000000 )
                  (    -1          0          0      )       ( -0.5000000 )
                  (     0          0         -1      )       (  0.5000000 )

 cart.    s(15) = (  0.0000000 -1.0000000  0.0000000 )    f =(  0.5000000 )
                  (  1.0000000  0.0000000  0.0000000 )       ( -0.5000000 )
                  (  0.0000000  0.0000000 -1.0000000 )       (  0.5000000 )


      isym = 16     inv.  90 deg rotation - cart. axis [0,0,1]   

 cryst.   s(16) = (     0         -1          0      )    f =( -0.5000000 )
                  (     1          0          0      )       (  0.5000000 )
                  (     0          0         -1      )       (  0.5000000 )

 cart.    s(16) = (  0.0000000  1.0000000  0.0000000 )    f =( -0.5000000 )
                  ( -1.0000000  0.0000000  0.0000000 )       (  0.5000000 )
                  (  0.0000000  0.0000000 -1.0000000 )       (  0.5000000 )


     double point group D_4h(4/mmm)
     there are 14 classes and  4 irreducible representations
     the character table:

       E     -E    2C4   -2C4   C2    2C2' 2C2'' i     -i    2S4   -2S4   s_h 
                               -C2   -2C2' -2C2'                         -s_h 
G_6+   2.00 -2.00  1.41 -1.41  0.00  0.00  0.00  2.00 -2.00  1.41 -1.41  0.00
G_7+   2.00 -2.00 -1.41  1.41  0.00  0.00  0.00  2.00 -2.00 -1.41  1.41  0.00
G_6-   2.00 -2.00  1.41 -1.41  0.00  0.00  0.00 -2.00  2.00 -1.41  1.41  0.00
G_7-   2.00 -2.00 -1.41  1.41  0.00  0.00  0.00 -2.00  2.00  1.41 -1.41  0.00

        2s_v  2s_d
       -2s_v -2s_d
G_6+   0.00  0.00
G_7+   0.00  0.00
G_6-   0.00  0.00
G_7-   0.00  0.00

     the symmetry operations in each class and the name of the first element:

     E             1
          identity                                               
     -E           -1
          identity E                                             
     2C4           7    8
           90 deg rotation - cart. axis [0,0,-1]                 
     -2C4         -7   -8
           90 deg rotation - cart. axis [0,0,-1] E               
      C2  -C2      2   -2
          180 deg rotation - cart. axis [0,0,1]                  
      2C2'-2C2'    3   -3    4   -4
          180 deg rotation - cart. axis [0,1,0]                  
     2C2''-2C2'    5   -5   -6    6
          180 deg rotation - cart. axis [1,1,0]                  
     i             9
          inversion                                              
     -i           -9
          inversion E                                            
     2S4          15   16
          inv.  90 deg rotation - cart. axis [0,0,-1]            
     -2S4        -15  -16
          inv.  90 deg rotation - cart. axis [0,0,-1] E          
      s_h -s_h    10  -10
          inv. 180 deg rotation - cart. axis [0,0,1]             
      2s_v-2s_v   11  -11   12  -12
          inv. 180 deg rotation - cart. axis [0,1,0]             
      2s_d-2s_d   13  -13  -14   14
          inv. 180 deg rotation - cart. axis [1,1,0]             

   Cartesian axes

     site n.     atom                  positions (alat units)
         1           Sn  tau(   1) = (   0.0000000   0.0000000   0.0000000  )
         2           Sn  tau(   2) = (   0.5000000   0.5000000   0.5000000  )
         3           I   tau(   3) = (   0.2985210   0.2985210   0.0000000  )
         4           I   tau(   4) = (   0.7014790   0.7014790   0.0000000  )
         5           I   tau(   5) = (   0.7985210   0.2014790   0.5000000  )
         6           I   tau(   6) = (   0.2014790   0.7985210   0.5000000  )

   Crystallographic axes

     site n.     atom                  positions (cryst. coord.)
         1           Sn  tau(   1) = (  0.0000000  0.0000000  0.0000000  )
         2           Sn  tau(   2) = (  0.5000000  0.5000000  0.5000000  )
         3           I   tau(   3) = (  0.2985210  0.2985210  0.0000000  )
         4           I   tau(   4) = (  0.7014790  0.7014790  0.0000000  )
         5           I   tau(   5) = (  0.7985210  0.2014790  0.5000000  )
         6           I   tau(   6) = (  0.2014790  0.7985210  0.5000000  )

     number of k points=    18
                       cart. coord. in units 2pi/alat
        k(    1) = (   0.0833333   0.0833333   0.0833333), wk =   0.0370370
        k(    2) = (   0.0833333   0.0833333   0.2500000), wk =   0.0370370
        k(    3) = (   0.0833333   0.0833333   0.4166667), wk =   0.0370370
        k(    4) = (   0.0833333   0.2500000   0.2500000), wk =   0.0740741
        k(    5) = (   0.0833333   0.2500000   0.4166667), wk =   0.0740741
        k(    6) = (   0.0833333   0.4166667   0.4166667), wk =   0.0740741
        k(    7) = (   0.2500000   0.2500000   0.2500000), wk =   0.0370370
        k(    8) = (   0.2500000   0.2500000   0.4166667), wk =   0.0370370
        k(    9) = (   0.2500000   0.4166667   0.4166667), wk =   0.0740741
        k(   10) = (   0.4166667   0.4166667   0.4166667), wk =   0.0370370
        k(   11) = (   0.0833333   0.2500000   0.0833333), wk =   0.0740741
        k(   12) = (   0.0833333   0.4166667   0.0833333), wk =   0.0740741
        k(   13) = (   0.2500000   0.2500000   0.0833333), wk =   0.0370370
        k(   14) = (   0.2500000   0.4166667   0.0833333), wk =   0.0740741
        k(   15) = (   0.4166667   0.0833333   0.2500000), wk =   0.0740741
        k(   16) = (   0.4166667   0.4166667   0.0833333), wk =   0.0370370
        k(   17) = (   0.2500000   0.4166667   0.2500000), wk =   0.0740741
        k(   18) = (   0.4166667   0.4166667   0.2500000), wk =   0.0370370

                       cryst. coord.
        k(    1) = (   0.0833333   0.0833333   0.0833333), wk =   0.0370370
        k(    2) = (   0.0833333   0.0833333   0.2500000), wk =   0.0370370
        k(    3) = (   0.0833333   0.0833333   0.4166667), wk =   0.0370370
        k(    4) = (   0.0833333   0.2500000   0.2500000), wk =   0.0740741
        k(    5) = (   0.0833333   0.2500000   0.4166667), wk =   0.0740741
        k(    6) = (   0.0833333   0.4166667   0.4166667), wk =   0.0740741
        k(    7) = (   0.2500000   0.2500000   0.2500000), wk =   0.0370370
        k(    8) = (   0.2500000   0.2500000   0.4166667), wk =   0.0370370
        k(    9) = (   0.2500000   0.4166667   0.4166667), wk =   0.0740741
        k(   10) = (   0.4166667   0.4166667   0.4166667), wk =   0.0370370
        k(   11) = (   0.0833333   0.2500000   0.0833333), wk =   0.0740741
        k(   12) = (   0.0833333   0.4166667   0.0833333), wk =   0.0740741
        k(   13) = (   0.2500000   0.2500000   0.0833333), wk =   0.0370370
        k(   14) = (   0.2500000   0.4166667   0.0833333), wk =   0.0740741
        k(   15) = (   0.4166667   0.0833333   0.2500000), wk =   0.0740741
        k(   16) = (   0.4166667   0.4166667   0.0833333), wk =   0.0370370
        k(   17) = (   0.2500000   0.4166667   0.2500000), wk =   0.0740741
        k(   18) = (   0.4166667   0.4166667   0.2500000), wk =   0.0370370

     Dense  grid:   346083 G-vectors     FFT dimensions: (  90,  90,  90)

     Smooth grid:   188183 G-vectors     FFT dimensions: (  72,  72,  72)

     Dynamical RAM for                 wfc:       1.67 MB

     Dynamical RAM for     wfc (w. buffer):      31.82 MB

     Dynamical RAM for           str. fact:       0.44 MB

     Dynamical RAM for           local pot:       0.00 MB

     Dynamical RAM for          nlocal pot:       3.05 MB

     Dynamical RAM for                qrad:      18.29 MB

     Dynamical RAM for          rho,v,vnew:       5.61 MB

     Dynamical RAM for               rhoin:       1.87 MB

     Dynamical RAM for            rho*nmix:      14.08 MB

     Dynamical RAM for           G-vectors:       0.88 MB

     Dynamical RAM for          h,s,v(r/c):       0.25 MB

     Dynamical RAM for          <psi|beta>:       0.35 MB

     Dynamical RAM for                 psi:       6.70 MB

     Dynamical RAM for                hpsi:       6.70 MB

     Dynamical RAM for                spsi:       6.70 MB

     Dynamical RAM for      wfcinit/wfcrot:       3.16 MB

     Dynamical RAM for           addusdens:     135.10 MB

     Dynamical RAM for          addusforce:     137.93 MB

     Dynamical RAM for         addusstress:     138.18 MB

     Estimated static dynamical RAM per process >      78.68 MB

     Estimated max dynamical RAM per process >     216.86 MB

     Estimated total dynamical RAM >       5.08 GB

     Initial potential from superposition of free atoms

     starting charge   55.99771, renormalised to   56.00000
     Starting wfcs are   68 randomized atomic wfcs
     Checking if some PAW data can be deallocated... 
       PAW data deallocated on   16 nodes for type:  1
       PAW data deallocated on    8 nodes for type:  2

     total cpu time spent up to now is       24.8 secs

     Self-consistent Calculation

     iteration #  1     ecut=    60.00 Ry     beta= 0.35
     Davidson diagonalization with overlap
     ethr =  1.00E-02,  avg # of iterations =  1.0

     total cpu time spent up to now is       71.4 secs

     total energy              =   -2370.82390499 Ry
     Harris-Foulkes estimate   =   -2371.10817069 Ry
     estimated scf accuracy    <       0.58795198 Ry

     iteration #  2     ecut=    60.00 Ry     beta= 0.35
     Davidson diagonalization with overlap
     ethr =  1.05E-03,  avg # of iterations =  3.0

     total cpu time spent up to now is      133.6 secs

     total energy              =   -2370.92683606 Ry
     Harris-Foulkes estimate   =   -2370.93766324 Ry
     estimated scf accuracy    <       0.04026987 Ry

     iteration #  3     ecut=    60.00 Ry     beta= 0.35
     Davidson diagonalization with overlap
     ethr =  7.19E-05,  avg # of iterations =  3.4

     total cpu time spent up to now is      195.7 secs

     total energy              =   -2370.93045381 Ry
     Harris-Foulkes estimate   =   -2370.93273612 Ry
     estimated scf accuracy    <       0.00905977 Ry

     iteration #  4     ecut=    60.00 Ry     beta= 0.35
     Davidson diagonalization with overlap
     ethr =  1.62E-05,  avg # of iterations =  2.8

     total cpu time spent up to now is      254.1 secs

     total energy              =   -2370.93163596 Ry
     Harris-Foulkes estimate   =   -2370.93157980 Ry
     estimated scf accuracy    <       0.00058250 Ry

     iteration #  5     ecut=    60.00 Ry     beta= 0.35
     Davidson diagonalization with overlap
     ethr =  1.04E-06,  avg # of iterations =  5.1

     total cpu time spent up to now is      339.3 secs

     total energy              =   -2370.93179693 Ry
     Harris-Foulkes estimate   =   -2370.93187947 Ry
     estimated scf accuracy    <       0.00017156 Ry

     iteration #  6     ecut=    60.00 Ry     beta= 0.35
     Davidson diagonalization with overlap
     ethr =  3.06E-07,  avg # of iterations =  3.1

     total cpu time spent up to now is      399.4 secs

     total energy              =   -2370.93183942 Ry
     Harris-Foulkes estimate   =   -2370.93183461 Ry
     estimated scf accuracy    <       0.00001556 Ry

     iteration #  7     ecut=    60.00 Ry     beta= 0.35
     Davidson diagonalization with overlap
     ethr =  2.78E-08,  avg # of iterations =  4.1

     total cpu time spent up to now is      463.9 secs

     total energy              =   -2370.93184259 Ry
     Harris-Foulkes estimate   =   -2370.93184451 Ry
     estimated scf accuracy    <       0.00000376 Ry

     iteration #  8     ecut=    60.00 Ry     beta= 0.35
     Davidson diagonalization with overlap
     ethr =  6.71E-09,  avg # of iterations =  4.0

     total cpu time spent up to now is      524.2 secs

     End of self-consistent calculation

          k = 0.0833 0.0833 0.0833 ( 23502 PWs)   bands (ev):

   -23.2700 -23.2700 -23.2699 -23.2699 -23.1378 -23.1378 -23.1376 -23.1376
   -22.2507 -22.2507 -22.2507 -22.2507 -22.1357 -22.1357 -22.1354 -22.1354
   -22.0820 -22.0820 -22.0818 -22.0818 -11.6248 -11.6248 -11.5343 -11.5343
   -11.4846 -11.4846 -11.4803 -11.4803  -7.0739  -7.0739  -6.8745  -6.8745
    -2.6889  -2.6889  -2.5273  -2.5273  -2.1412  -2.1412  -2.0301  -2.0301
    -1.8826  -1.8826  -1.5309  -1.5309  -1.2276  -1.2276  -1.1343  -1.1343
    -1.1094  -1.1094  -0.9971  -0.9971  -0.9254  -0.9254  -0.8849  -0.8849

     occupation numbers 
     1.0000   1.0000   1.0000   1.0000   1.0000   1.0000   1.0000   1.0000
     1.0000   1.0000   1.0000   1.0000   1.0000   1.0000   1.0000   1.0000
     1.0000   1.0000   1.0000   1.0000   1.0000   1.0000   1.0000   1.0000
     1.0000   1.0000   1.0000   1.0000   1.0000   1.0000   1.0000   1.0000
     1.0000   1.0000   1.0000   1.0000   1.0000   1.0000   1.0000   1.0000
     1.0000   1.0000   1.0000   1.0000   1.0000   1.0000   1.0000   1.0000
     1.0000   1.0000   1.0000   1.0000   1.0000   1.0000   1.0000   1.0000

          k = 0.0833 0.0833 0.2500 ( 23518 PWs)   bands (ev):

   -23.2700 -23.2700 -23.2699 -23.2699 -23.1378 -23.1378 -23.1377 -23.1377
   -22.2507 -22.2507 -22.2507 -22.2507 -22.1356 -22.1356 -22.1356 -22.1356
   -22.0820 -22.0820 -22.0819 -22.0819 -11.6124 -11.6124 -11.5460 -11.5460
   -11.4846 -11.4846 -11.4802 -11.4802  -7.0538  -7.0538  -6.9082  -6.9082
    -2.6762  -2.6762  -2.5246  -2.5246  -2.1298  -2.1298  -2.0085  -2.0085
    -1.8571  -1.8571  -1.5554  -1.5554  -1.2253  -1.2253  -1.1755  -1.1755
    -1.1329  -1.1329  -1.0250  -1.0250  -0.9357  -0.9357  -0.8983  -0.8983

     occupation numbers 
     1.0000   1.0000   1.0000   1.0000   1.0000   1.0000   1.0000   1.0000
     1.0000   1.0000   1.0000   1.0000   1.0000   1.0000   1.0000   1.0000
     1.0000   1.0000   1.0000   1.0000   1.0000   1.0000   1.0000   1.0000
     1.0000   1.0000   1.0000   1.0000   1.0000   1.0000   1.0000   1.0000
     1.0000   1.0000   1.0000   1.0000   1.0000   1.0000   1.0000   1.0000
     1.0000   1.0000   1.0000   1.0000   1.0000   1.0000   1.0000   1.0000
     1.0000   1.0000   1.0000   1.0000   1.0000   1.0000   1.0000   1.0000

          k = 0.0833 0.0833 0.4167 ( 23544 PWs)   bands (ev):

   -23.2701 -23.2701 -23.2700 -23.2700 -23.1378 -23.1378 -23.1377 -23.1377
   -22.2508 -22.2508 -22.2507 -22.2507 -22.1357 -22.1357 -22.1356 -22.1356
   -22.0820 -22.0820 -22.0819 -22.0819 -11.5913 -11.5913 -11.5666 -11.5666
   -11.4845 -11.4845 -11.4800 -11.4800  -7.0145  -7.0145  -6.9611  -6.9611
    -2.6640  -2.6640  -2.5206  -2.5206  -2.1286  -2.1286  -1.9911  -1.9911
    -1.7906  -1.7906  -1.6122  -1.6122  -1.2241  -1.2241  -1.2043  -1.2043
    -1.1365  -1.1365  -1.0598  -1.0598  -0.9627  -0.9627  -0.9123  -0.9123

     occupation numbers 
     1.0000   1.0000   1.0000   1.0000   1.0000   1.0000   1.0000   1.0000
     1.0000   1.0000   1.0000   1.0000   1.0000   1.0000   1.0000   1.0000
     1.0000   1.0000   1.0000   1.0000   1.0000   1.0000   1.0000   1.0000
     1.0000   1.0000   1.0000   1.0000   1.0000   1.0000   1.0000   1.0000
     1.0000   1.0000   1.0000   1.0000   1.0000   1.0000   1.0000   1.0000
     1.0000   1.0000   1.0000   1.0000   1.0000   1.0000   1.0000   1.0000
     1.0000   1.0000   1.0000   1.0000   1.0000   1.0000   1.0000   1.0000

          k = 0.0833 0.2500 0.2500 ( 23539 PWs)   bands (ev):

   -23.2700 -23.2700 -23.2700 -23.2700 -23.1378 -23.1378 -23.1378 -23.1378
   -22.2508 -22.2508 -22.2507 -22.2507 -22.1356 -22.1356 -22.1356 -22.1356
   -22.0820 -22.0820 -22.0819 -22.0819 -11.5975 -11.5975 -11.5412 -11.5412
   -11.4991 -11.4991 -11.4862 -11.4862  -7.0308  -7.0308  -6.9234  -6.9234
    -2.8234  -2.8234  -2.6494  -2.6494  -2.0998  -2.0998  -1.9423  -1.9423
    -1.8151  -1.8151  -1.5773  -1.5773  -1.2508  -1.2508  -1.1832  -1.1832
    -1.0536  -1.0536  -0.9651  -0.9651  -0.9003  -0.9003  -0.7162  -0.7162

     occupation numbers 
     1.0000   1.0000   1.0000   1.0000   1.0000   1.0000   1.0000   1.0000
     1.0000   1.0000   1.0000   1.0000   1.0000   1.0000   1.0000   1.0000
     1.0000   1.0000   1.0000   1.0000   1.0000   1.0000   1.0000   1.0000
     1.0000   1.0000   1.0000   1.0000   1.0000   1.0000   1.0000   1.0000
     1.0000   1.0000   1.0000   1.0000   1.0000   1.0000   1.0000   1.0000
     1.0000   1.0000   1.0000   1.0000   1.0000   1.0000   1.0000   1.0000
     1.0000   1.0000   1.0000   1.0000   1.0000   1.0000   1.0000   1.0000

          k = 0.0833 0.2500 0.4167 ( 23545 PWs)   bands (ev):

   -23.2701 -23.2701 -23.2700 -23.2700 -23.1378 -23.1378 -23.1378 -23.1378
   -22.2508 -22.2508 -22.2507 -22.2507 -22.1356 -22.1356 -22.1356 -22.1356
   -22.0820 -22.0820 -22.0819 -22.0819 -11.5800 -11.5800 -11.5569 -11.5569
   -11.4989 -11.4989 -11.4872 -11.4872  -7.0039  -7.0039  -6.9633  -6.9633
    -2.8360  -2.8360  -2.6533  -2.6533  -2.0660  -2.0660  -1.8879  -1.8879
    -1.8355  -1.8355  -1.5853  -1.5853  -1.2578  -1.2578  -1.1790  -1.1790
    -1.0689  -1.0689  -0.9811  -0.9811  -0.8935  -0.8935  -0.7155  -0.7155

     occupation numbers 
     1.0000   1.0000   1.0000   1.0000   1.0000   1.0000   1.0000   1.0000
     1.0000   1.0000   1.0000   1.0000   1.0000   1.0000   1.0000   1.0000
     1.0000   1.0000   1.0000   1.0000   1.0000   1.0000   1.0000   1.0000
     1.0000   1.0000   1.0000   1.0000   1.0000   1.0000   1.0000   1.0000
     1.0000   1.0000   1.0000   1.0000   1.0000   1.0000   1.0000   1.0000
     1.0000   1.0000   1.0000   1.0000   1.0000   1.0000   1.0000   1.0000
     1.0000   1.0000   1.0000   1.0000   1.0000   1.0000   1.0000   1.0000

          k = 0.0833 0.4167 0.4167 ( 23530 PWs)   bands (ev):

   -23.2700 -23.2700 -23.2700 -23.2700 -23.1378 -23.1378 -23.1377 -23.1377
   -22.2508 -22.2508 -22.2507 -22.2507 -22.1356 -22.1356 -22.1356 -22.1356
   -22.0820 -22.0820 -22.0819 -22.0819 -11.5612 -11.5612 -11.5480 -11.5480
   -11.5120 -11.5120 -11.5024 -11.5024  -6.9877  -6.9877  -6.9712  -6.9712
    -2.9032  -2.9032  -2.8264  -2.8264  -2.0208  -2.0208  -1.9108  -1.9108
    -1.7868  -1.7868  -1.5873  -1.5873  -1.2452  -1.2452  -1.1987  -1.1987
    -0.9697  -0.9697  -0.9364  -0.9364  -0.7193  -0.7193  -0.5764  -0.5764

     occupation numbers 
     1.0000   1.0000   1.0000   1.0000   1.0000   1.0000   1.0000   1.0000
     1.0000   1.0000   1.0000   1.0000   1.0000   1.0000   1.0000   1.0000
     1.0000   1.0000   1.0000   1.0000   1.0000   1.0000   1.0000   1.0000
     1.0000   1.0000   1.0000   1.0000   1.0000   1.0000   1.0000   1.0000
     1.0000   1.0000   1.0000   1.0000   1.0000   1.0000   1.0000   1.0000
     1.0000   1.0000   1.0000   1.0000   1.0000   1.0000   1.0000   1.0000
     1.0000   1.0000   1.0000   1.0000   1.0000   1.0000   1.0000   1.0000

          k = 0.2500 0.2500 0.2500 ( 23502 PWs)   bands (ev):

   -23.2700 -23.2700 -23.2699 -23.2699 -23.1378 -23.1378 -23.1377 -23.1377
   -22.2507 -22.2507 -22.2506 -22.2506 -22.1356 -22.1356 -22.1355 -22.1355
   -22.0820 -22.0820 -22.0819 -22.0819 -11.5890 -11.5890 -11.5412 -11.5412
   -11.5082 -11.5082 -11.4851 -11.4851  -7.0207  -7.0207  -6.9402  -6.9402
    -2.8817  -2.8817  -2.5366  -2.5366  -2.0971  -2.0971  -1.9280  -1.9280
    -1.8738  -1.8738  -1.6048  -1.6048  -1.2969  -1.2969  -1.2294  -1.2294
    -1.1227  -1.1227  -0.9347  -0.9347  -0.8796  -0.8796  -0.5896  -0.5896

     occupation numbers 
     1.0000   1.0000   1.0000   1.0000   1.0000   1.0000   1.0000   1.0000
     1.0000   1.0000   1.0000   1.0000   1.0000   1.0000   1.0000   1.0000
     1.0000   1.0000   1.0000   1.0000   1.0000   1.0000   1.0000   1.0000
     1.0000   1.0000   1.0000   1.0000   1.0000   1.0000   1.0000   1.0000
     1.0000   1.0000   1.0000   1.0000   1.0000   1.0000   1.0000   1.0000
     1.0000   1.0000   1.0000   1.0000   1.0000   1.0000   1.0000   1.0000
     1.0000   1.0000   1.0000   1.0000   1.0000   1.0000   1.0000   1.0000

          k = 0.2500 0.2500 0.4167 ( 23554 PWs)   bands (ev):

   -23.2701 -23.2701 -23.2700 -23.2700 -23.1378 -23.1378 -23.1378 -23.1378
   -22.2508 -22.2508 -22.2507 -22.2507 -22.1356 -22.1356 -22.1356 -22.1356
   -22.0820 -22.0820 -22.0820 -22.0820 -11.5777 -11.5777 -11.5483 -11.5483
   -11.5113 -11.5113 -11.4849 -11.4849  -7.0049  -7.0049  -6.9694  -6.9694
    -2.8996  -2.8996  -2.5219  -2.5219  -2.1179  -2.1179  -1.8886  -1.8886
    -1.8747  -1.8747  -1.5843  -1.5843  -1.3093  -1.3093  -1.2077  -1.2077
    -1.1222  -1.1222  -0.9290  -0.9290  -0.8693  -0.8693  -0.5792  -0.5792

     occupation numbers 
     1.0000   1.0000   1.0000   1.0000   1.0000   1.0000   1.0000   1.0000
     1.0000   1.0000   1.0000   1.0000   1.0000   1.0000   1.0000   1.0000
     1.0000   1.0000   1.0000   1.0000   1.0000   1.0000   1.0000   1.0000
     1.0000   1.0000   1.0000   1.0000   1.0000   1.0000   1.0000   1.0000
     1.0000   1.0000   1.0000   1.0000   1.0000   1.0000   1.0000   1.0000
     1.0000   1.0000   1.0000   1.0000   1.0000   1.0000   1.0000   1.0000
     1.0000   1.0000   1.0000   1.0000   1.0000   1.0000   1.0000   1.0000

          k = 0.2500 0.4167 0.4167 ( 23527 PWs)   bands (ev):

   -23.2700 -23.2700 -23.2700 -23.2700 -23.1378 -23.1378 -23.1377 -23.1377
   -22.2507 -22.2507 -22.2507 -22.2507 -22.1356 -22.1356 -22.1356 -22.1356
   -22.0820 -22.0820 -22.0819 -22.0819 -11.5682 -11.5682 -11.5539 -11.5539
   -11.5066 -11.5066 -11.4928 -11.4928  -6.9984  -6.9984  -6.9830  -6.9830
    -2.8250  -2.8250  -2.6484  -2.6484  -2.0807  -2.0807  -1.9413  -1.9413
    -1.8239  -1.8239  -1.5902  -1.5902  -1.2937  -1.2937  -1.2371  -1.2371
    -1.0307  -1.0307  -0.8994  -0.8994  -0.8332  -0.8332  -0.7232  -0.7232

     occupation numbers 
     1.0000   1.0000   1.0000   1.0000   1.0000   1.0000   1.0000   1.0000
     1.0000   1.0000   1.0000   1.0000   1.0000   1.0000   1.0000   1.0000
     1.0000   1.0000   1.0000   1.0000   1.0000   1.0000   1.0000   1.0000
     1.0000   1.0000   1.0000   1.0000   1.0000   1.0000   1.0000   1.0000
     1.0000   1.0000   1.0000   1.0000   1.0000   1.0000   1.0000   1.0000
     1.0000   1.0000   1.0000   1.0000   1.0000   1.0000   1.0000   1.0000
     1.0000   1.0000   1.0000   1.0000   1.0000   1.0000   1.0000   1.0000

          k = 0.4167 0.4167 0.4167 ( 23522 PWs)   bands (ev):

   -23.2700 -23.2700 -23.2699 -23.2699 -23.1378 -23.1378 -23.1377 -23.1377
   -22.2507 -22.2507 -22.2507 -22.2507 -22.1356 -22.1356 -22.1355 -22.1355
   -22.0820 -22.0820 -22.0819 -22.0819 -11.5698 -11.5698 -11.5642 -11.5642
   -11.4956 -11.4956 -11.4899 -11.4899  -7.0052  -7.0052  -6.9984  -6.9984
    -2.6457  -2.6457  -2.5235  -2.5235  -2.1165  -2.1165  -1.9830  -1.9830
    -1.8684  -1.8684  -1.6653  -1.6653  -1.3338  -1.3338  -1.2824  -1.2824
    -1.0948  -1.0948  -1.0125  -1.0125  -0.8117  -0.8117  -0.7969  -0.7969

     occupation numbers 
     1.0000   1.0000   1.0000   1.0000   1.0000   1.0000   1.0000   1.0000
     1.0000   1.0000   1.0000   1.0000   1.0000   1.0000   1.0000   1.0000
     1.0000   1.0000   1.0000   1.0000   1.0000   1.0000   1.0000   1.0000
     1.0000   1.0000   1.0000   1.0000   1.0000   1.0000   1.0000   1.0000
     1.0000   1.0000   1.0000   1.0000   1.0000   1.0000   1.0000   1.0000
     1.0000   1.0000   1.0000   1.0000   1.0000   1.0000   1.0000   1.0000
     1.0000   1.0000   1.0000   1.0000   1.0000   1.0000   1.0000   1.0000

          k = 0.0833 0.2500 0.0833 ( 23518 PWs)   bands (ev):

   -23.2700 -23.2700 -23.2699 -23.2699 -23.1378 -23.1378 -23.1377 -23.1377
   -22.2507 -22.2507 -22.2507 -22.2507 -22.1356 -22.1356 -22.1355 -22.1355
   -22.0820 -22.0820 -22.0819 -22.0819 -11.6081 -11.6081 -11.5329 -11.5329
   -11.4986 -11.4986 -11.4854 -11.4854  -7.0438  -7.0438  -6.8973  -6.8973
    -2.8079  -2.8079  -2.6444  -2.6444  -2.1569  -2.1569  -1.9726  -1.9726
    -1.8035  -1.8035  -1.5562  -1.5562  -1.2438  -1.2438  -1.1873  -1.1873
    -1.0399  -1.0399  -0.9573  -0.9573  -0.9029  -0.9029  -0.7161  -0.7161

     occupation numbers 
     1.0000   1.0000   1.0000   1.0000   1.0000   1.0000   1.0000   1.0000
     1.0000   1.0000   1.0000   1.0000   1.0000   1.0000   1.0000   1.0000
     1.0000   1.0000   1.0000   1.0000   1.0000   1.0000   1.0000   1.0000
     1.0000   1.0000   1.0000   1.0000   1.0000   1.0000   1.0000   1.0000
     1.0000   1.0000   1.0000   1.0000   1.0000   1.0000   1.0000   1.0000
     1.0000   1.0000   1.0000   1.0000   1.0000   1.0000   1.0000   1.0000
     1.0000   1.0000   1.0000   1.0000   1.0000   1.0000   1.0000   1.0000

          k = 0.0833 0.4167 0.0833 ( 23544 PWs)   bands (ev):

   -23.2700 -23.2700 -23.2700 -23.2700 -23.1378 -23.1378 -23.1378 -23.1378
   -22.2508 -22.2508 -22.2507 -22.2507 -22.1356 -22.1356 -22.1356 -22.1356
   -22.0820 -22.0820 -22.0820 -22.0820 -11.5792 -11.5792 -11.5478 -11.5478
   -11.5040 -11.5040 -11.4951 -11.4951  -6.9938  -6.9938  -6.9399  -6.9399
    -2.8606  -2.8606  -2.7937  -2.7937  -2.1017  -2.1017  -2.0139  -2.0139
    -1.7069  -1.7069  -1.6070  -1.6070  -1.2698  -1.2698  -1.2455  -1.2455
    -0.9982  -0.9982  -0.9496  -0.9496  -0.7254  -0.7254  -0.5974  -0.5974

     occupation numbers 
     1.0000   1.0000   1.0000   1.0000   1.0000   1.0000   1.0000   1.0000
     1.0000   1.0000   1.0000   1.0000   1.0000   1.0000   1.0000   1.0000
     1.0000   1.0000   1.0000   1.0000   1.0000   1.0000   1.0000   1.0000
     1.0000   1.0000   1.0000   1.0000   1.0000   1.0000   1.0000   1.0000
     1.0000   1.0000   1.0000   1.0000   1.0000   1.0000   1.0000   1.0000
     1.0000   1.0000   1.0000   1.0000   1.0000   1.0000   1.0000   1.0000
     1.0000   1.0000   1.0000   1.0000   1.0000   1.0000   1.0000   1.0000

          k = 0.2500 0.2500 0.0833 ( 23539 PWs)   bands (ev):

   -23.2700 -23.2700 -23.2700 -23.2700 -23.1378 -23.1378 -23.1378 -23.1378
   -22.2508 -22.2508 -22.2507 -22.2507 -22.1356 -22.1356 -22.1356 -22.1356
   -22.0820 -22.0820 -22.0819 -22.0819 -11.5970 -11.5970 -11.5376 -11.5376
   -11.5047 -11.5047 -11.4853 -11.4853  -7.0280  -7.0280  -6.9195  -6.9195
    -2.8601  -2.8601  -2.5527  -2.5527  -2.0863  -2.0863  -1.9812  -1.9812
    -1.8701  -1.8701  -1.5879  -1.5879  -1.2963  -1.2963  -1.2506  -1.2506
    -1.1227  -1.1227  -0.9340  -0.9340  -0.8990  -0.8990  -0.5989  -0.5989

     occupation numbers 
     1.0000   1.0000   1.0000   1.0000   1.0000   1.0000   1.0000   1.0000
     1.0000   1.0000   1.0000   1.0000   1.0000   1.0000   1.0000   1.0000
     1.0000   1.0000   1.0000   1.0000   1.0000   1.0000   1.0000   1.0000
     1.0000   1.0000   1.0000   1.0000   1.0000   1.0000   1.0000   1.0000
     1.0000   1.0000   1.0000   1.0000   1.0000   1.0000   1.0000   1.0000
     1.0000   1.0000   1.0000   1.0000   1.0000   1.0000   1.0000   1.0000
     1.0000   1.0000   1.0000   1.0000   1.0000   1.0000   1.0000   1.0000

          k = 0.2500 0.4167 0.0833 ( 23545 PWs)   bands (ev):

   -23.2700 -23.2700 -23.2700 -23.2700 -23.1378 -23.1378 -23.1378 -23.1378
   -22.2508 -22.2508 -22.2507 -22.2507 -22.1356 -22.1356 -22.1356 -22.1356
   -22.0820 -22.0820 -22.0820 -22.0820 -11.5777 -11.5777 -11.5551 -11.5551
   -11.5002 -11.5002 -11.4913 -11.4913  -6.9971  -6.9971  -6.9569  -6.9569
    -2.7910  -2.7910  -2.6405  -2.6405  -2.0663  -2.0663  -2.0082  -2.0082
    -1.7680  -1.7680  -1.6416  -1.6416  -1.3505  -1.3505  -1.3227  -1.3227
    -1.0349  -1.0349  -0.9334  -0.9334  -0.8590  -0.8590  -0.7093  -0.7093

     occupation numbers 
     1.0000   1.0000   1.0000   1.0000   1.0000   1.0000   1.0000   1.0000
     1.0000   1.0000   1.0000   1.0000   1.0000   1.0000   1.0000   1.0000
     1.0000   1.0000   1.0000   1.0000   1.0000   1.0000   1.0000   1.0000
     1.0000   1.0000   1.0000   1.0000   1.0000   1.0000   1.0000   1.0000
     1.0000   1.0000   1.0000   1.0000   1.0000   1.0000   1.0000   1.0000
     1.0000   1.0000   1.0000   1.0000   1.0000   1.0000   1.0000   1.0000
     1.0000   1.0000   1.0000   1.0000   1.0000   1.0000   1.0000   1.0000

          k = 0.4167 0.0833 0.2500 ( 23545 PWs)   bands (ev):

   -23.2701 -23.2701 -23.2700 -23.2700 -23.1378 -23.1378 -23.1378 -23.1378
   -22.2508 -22.2508 -22.2507 -22.2507 -22.1356 -22.1356 -22.1356 -22.1356
   -22.0820 -22.0820 -22.0819 -22.0819 -11.5719 -11.5719 -11.5464 -11.5464
   -11.5082 -11.5082 -11.4983 -11.4983  -6.9931  -6.9931  -6.9533  -6.9533
    -2.8840  -2.8840  -2.8112  -2.8112  -2.0495  -2.0495  -1.9614  -1.9614
    -1.7568  -1.7568  -1.5942  -1.5942  -1.2606  -1.2606  -1.2261  -1.2261
    -0.9997  -0.9997  -0.9281  -0.9281  -0.7261  -0.7261  -0.5898  -0.5898

     occupation numbers 
     1.0000   1.0000   1.0000   1.0000   1.0000   1.0000   1.0000   1.0000
     1.0000   1.0000   1.0000   1.0000   1.0000   1.0000   1.0000   1.0000
     1.0000   1.0000   1.0000   1.0000   1.0000   1.0000   1.0000   1.0000
     1.0000   1.0000   1.0000   1.0000   1.0000   1.0000   1.0000   1.0000
     1.0000   1.0000   1.0000   1.0000   1.0000   1.0000   1.0000   1.0000
     1.0000   1.0000   1.0000   1.0000   1.0000   1.0000   1.0000   1.0000
     1.0000   1.0000   1.0000   1.0000   1.0000   1.0000   1.0000   1.0000

          k = 0.4167 0.4167 0.0833 ( 23530 PWs)   bands (ev):

   -23.2700 -23.2700 -23.2700 -23.2700 -23.1378 -23.1378 -23.1378 -23.1378
   -22.2507 -22.2507 -22.2507 -22.2507 -22.1356 -22.1356 -22.1356 -22.1356
   -22.0820 -22.0820 -22.0819 -22.0819 -11.5732 -11.5732 -11.5651 -11.5651
   -11.4941 -11.4941 -11.4903 -11.4903  -6.9946  -6.9946  -6.9796  -6.9796
    -2.6359  -2.6359  -2.5425  -2.5425  -2.0239  -2.0239  -1.9617  -1.9617
    -1.8500  -1.8500  -1.7238  -1.7238  -1.4115  -1.4115  -1.4019  -1.4019
    -1.1226  -1.1226  -1.0282  -1.0282  -0.8416  -0.8416  -0.8175  -0.8175

     occupation numbers 
     1.0000   1.0000   1.0000   1.0000   1.0000   1.0000   1.0000   1.0000
     1.0000   1.0000   1.0000   1.0000   1.0000   1.0000   1.0000   1.0000
     1.0000   1.0000   1.0000   1.0000   1.0000   1.0000   1.0000   1.0000
     1.0000   1.0000   1.0000   1.0000   1.0000   1.0000   1.0000   1.0000
     1.0000   1.0000   1.0000   1.0000   1.0000   1.0000   1.0000   1.0000
     1.0000   1.0000   1.0000   1.0000   1.0000   1.0000   1.0000   1.0000
     1.0000   1.0000   1.0000   1.0000   1.0000   1.0000   1.0000   1.0000

          k = 0.2500 0.4167 0.2500 ( 23554 PWs)   bands (ev):

   -23.2701 -23.2701 -23.2700 -23.2700 -23.1378 -23.1378 -23.1378 -23.1378
   -22.2508 -22.2508 -22.2507 -22.2507 -22.1356 -22.1356 -22.1356 -22.1356
   -22.0820 -22.0820 -22.0820 -22.0820 -11.5733 -11.5733 -11.5543 -11.5543
   -11.5032 -11.5032 -11.4920 -11.4920  -6.9990  -6.9990  -6.9687  -6.9687
    -2.8096  -2.8096  -2.6447  -2.6447  -2.0672  -2.0672  -1.9629  -1.9629
    -1.8079  -1.8079  -1.6263  -1.6263  -1.3207  -1.3207  -1.2847  -1.2847
    -1.0287  -1.0287  -0.9172  -0.9172  -0.8471  -0.8471  -0.7148  -0.7148

     occupation numbers 
     1.0000   1.0000   1.0000   1.0000   1.0000   1.0000   1.0000   1.0000
     1.0000   1.0000   1.0000   1.0000   1.0000   1.0000   1.0000   1.0000
     1.0000   1.0000   1.0000   1.0000   1.0000   1.0000   1.0000   1.0000
     1.0000   1.0000   1.0000   1.0000   1.0000   1.0000   1.0000   1.0000
     1.0000   1.0000   1.0000   1.0000   1.0000   1.0000   1.0000   1.0000
     1.0000   1.0000   1.0000   1.0000   1.0000   1.0000   1.0000   1.0000
     1.0000   1.0000   1.0000   1.0000   1.0000   1.0000   1.0000   1.0000

          k = 0.4167 0.4167 0.2500 ( 23527 PWs)   bands (ev):

   -23.2700 -23.2700 -23.2700 -23.2700 -23.1378 -23.1378 -23.1378 -23.1378
   -22.2507 -22.2507 -22.2507 -22.2507 -22.1356 -22.1356 -22.1356 -22.1356
   -22.0820 -22.0820 -22.0819 -22.0819 -11.5715 -11.5715 -11.5646 -11.5646
   -11.4948 -11.4948 -11.4901 -11.4901  -7.0003  -7.0003  -6.9887  -6.9887
    -2.6414  -2.6414  -2.5326  -2.5326  -2.0707  -2.0707  -1.9635  -1.9635
    -1.8648  -1.8648  -1.7016  -1.7016  -1.3738  -1.3738  -1.3539  -1.3539
    -1.0997  -1.0997  -1.0099  -1.0099  -0.8274  -0.8274  -0.8107  -0.8107

     occupation numbers 
     1.0000   1.0000   1.0000   1.0000   1.0000   1.0000   1.0000   1.0000
     1.0000   1.0000   1.0000   1.0000   1.0000   1.0000   1.0000   1.0000
     1.0000   1.0000   1.0000   1.0000   1.0000   1.0000   1.0000   1.0000
     1.0000   1.0000   1.0000   1.0000   1.0000   1.0000   1.0000   1.0000
     1.0000   1.0000   1.0000   1.0000   1.0000   1.0000   1.0000   1.0000
     1.0000   1.0000   1.0000   1.0000   1.0000   1.0000   1.0000   1.0000
     1.0000   1.0000   1.0000   1.0000   1.0000   1.0000   1.0000   1.0000

     highest occupied level (ev):    -0.5764

!    total energy              =   -2370.93184347 Ry
     Harris-Foulkes estimate   =   -2370.93184343 Ry
     estimated scf accuracy    <       0.00000011 Ry

     total all-electron energy =    -81634.454049 Ry

     The total energy is the sum of the following terms:

     one-electron contribution =    -248.67255147 Ry
     hartree contribution      =     145.42438578 Ry
     xc contribution           =    -157.08637718 Ry
     ewald contribution        =    -190.25175950 Ry
     one-center paw contrib.   =   -1920.34554111 Ry
      -> PAW hartree energy AE =     107.21571311 Ry
      -> PAW hartree energy PS =    -106.43010920 Ry
      -> PAW xc energy AE      =    -324.22681213 Ry
      -> PAW xc energy PS      =      46.58886552 Ry
      -> total E_H with PAW    =     146.20998969 Ry
      -> total E_XC with PAW   =    -434.72432379 Ry

     convergence has been achieved in   8 iterations

     Forces acting on atoms (cartesian axes, Ry/au):

     atom    1 type  1   force =     0.00000000    0.00000000    0.00000000
     atom    2 type  1   force =     0.00000000    0.00000000    0.00000000
     atom    3 type  2   force =    -0.01804251   -0.01804251   -0.00000000
     atom    4 type  2   force =     0.01804251    0.01804251   -0.00000000
     atom    5 type  2   force =    -0.01804251    0.01804251   -0.00000000
     atom    6 type  2   force =     0.01804251   -0.01804251   -0.00000000
     The non-local contrib.  to forces
     atom    1 type  1   force =     0.00000000    0.00000000    0.00000000
     atom    2 type  1   force =     0.00000000    0.00000000    0.00000000
     atom    3 type  2   force =    -0.04124814   -0.04124814    0.00000000
     atom    4 type  2   force =     0.04124814    0.04124814    0.00000000
     atom    5 type  2   force =    -0.04124814    0.04124814   -0.00000000
     atom    6 type  2   force =     0.04124814   -0.04124814   -0.00000000
     The ionic contribution  to forces
     atom    1 type  1   force =    -0.00000000   -0.00000000   -0.00000000
     atom    2 type  1   force =     0.00000000    0.00000000    0.00000000
     atom    3 type  2   force =     1.38633657    1.38633657    0.00000000
     atom    4 type  2   force =    -1.38633657   -1.38633657    0.00000000
     atom    5 type  2   force =     1.38633657   -1.38633657    0.00000000
     atom    6 type  2   force =    -1.38633657    1.38633657    0.00000000
     The local contribution  to forces
     atom    1 type  1   force =     0.00000000    0.00000000    0.00000000
     atom    2 type  1   force =     0.00000000    0.00000000    0.00000000
     atom    3 type  2   force =    -1.36704281   -1.36704281    0.00000000
     atom    4 type  2   force =     1.36704281    1.36704281    0.00000000
     atom    5 type  2   force =    -1.36704281    1.36704281    0.00000000
     atom    6 type  2   force =     1.36704281   -1.36704281    0.00000000
     The core correction contribution to forces
     atom    1 type  1   force =     0.00000000    0.00000000    0.00000000
     atom    2 type  1   force =     0.00000000    0.00000000    0.00000000
     atom    3 type  2   force =     0.00389261    0.00389261    0.00000000
     atom    4 type  2   force =    -0.00389261   -0.00389261    0.00000000
     atom    5 type  2   force =     0.00389261   -0.00389261    0.00000000
     atom    6 type  2   force =    -0.00389261    0.00389261    0.00000000
     The Hubbard contrib.    to forces
     atom    1 type  1   force =     0.00000000    0.00000000    0.00000000
     atom    2 type  1   force =     0.00000000    0.00000000    0.00000000
     atom    3 type  2   force =     0.00000000    0.00000000    0.00000000
     atom    4 type  2   force =     0.00000000    0.00000000    0.00000000
     atom    5 type  2   force =     0.00000000    0.00000000    0.00000000
     atom    6 type  2   force =     0.00000000    0.00000000    0.00000000
     The SCF correction term to forces
     atom    1 type  1   force =     0.00000000    0.00000000   -0.00000000
     atom    2 type  1   force =    -0.00000000    0.00000000   -0.00000000
     atom    3 type  2   force =     0.00001926    0.00001926    0.00000000
     atom    4 type  2   force =    -0.00001926   -0.00001926    0.00000000
     atom    5 type  2   force =     0.00001926   -0.00001926   -0.00000000
     atom    6 type  2   force =    -0.00001926    0.00001926   -0.00000000

     Total force =     0.051032     Total SCF correction =     0.000054


     Computing stress (Cartesian axis) and pressure

     Message from routine stres:
     noncollinear stress + GGA not implemented

     Writing output data file SnI2.save/
 
     init_run     :     12.93s CPU     19.79s WALL (       1 calls)
     electrons    :    324.90s CPU    499.54s WALL (       1 calls)
     forces       :      4.07s CPU      5.81s WALL (       1 calls)

     Called by init_run:
     wfcinit      :     10.54s CPU     16.36s WALL (       1 calls)
     wfcinit:atom :      0.03s CPU      0.03s WALL (      18 calls)
     wfcinit:wfcr :     10.34s CPU     16.09s WALL (      18 calls)
     potinit      :      0.90s CPU      1.34s WALL (       1 calls)
     hinit0       :      0.53s CPU      0.80s WALL (       1 calls)

     Called by electrons:
     c_bands      :    260.95s CPU    395.62s WALL (       8 calls)
     sum_band     :     52.27s CPU     86.68s WALL (       8 calls)
     v_of_rho     :      0.75s CPU      1.14s WALL (       9 calls)
     v_h          :      0.02s CPU      0.02s WALL (       9 calls)
     v_xc         :      0.87s CPU      1.35s WALL (      10 calls)
     newd         :      5.68s CPU      7.62s WALL (       9 calls)
     PAW_pot      :      2.26s CPU      3.27s WALL (       9 calls)
     mix_rho      :      1.59s CPU      2.86s WALL (       8 calls)

     Called by c_bands:
     init_us_2    :      0.83s CPU      1.21s WALL (     324 calls)
     cegterg      :    250.08s CPU    383.46s WALL (     144 calls)

     Called by sum_band:
     sum_band:bec :      2.73s CPU      3.31s WALL (     144 calls)
     addusdens    :      4.18s CPU      5.09s WALL (       8 calls)

     Called by *egterg:
     h_psi        :    151.46s CPU    235.89s WALL (     638 calls)
     s_psi        :      3.22s CPU      3.85s WALL (     638 calls)
     g_psi        :      0.38s CPU      0.39s WALL (     476 calls)
     cdiaghg      :     26.96s CPU     44.42s WALL (     620 calls)
     cegterg:over :     31.17s CPU     43.44s WALL (     476 calls)
     cegterg:upda :     21.91s CPU     32.76s WALL (     476 calls)
     cegterg:last :      5.64s CPU      8.32s WALL (     144 calls)
     cdiaghg:chol :      2.03s CPU      2.70s WALL (     620 calls)
     cdiaghg:inve :      1.22s CPU      1.88s WALL (     620 calls)
     cdiaghg:para :      9.20s CPU     15.99s WALL (    1240 calls)

     Called by h_psi:
     h_psi:pot    :    150.65s CPU    234.99s WALL (     638 calls)
     h_psi:calbec :      3.91s CPU      4.91s WALL (     638 calls)
     vloc_psi     :    143.20s CPU    225.84s WALL (     638 calls)
     add_vuspsi   :      3.52s CPU      4.24s WALL (     638 calls)

     General routines
     calbec       :      7.22s CPU      9.59s WALL (     854 calls)
     fft          :      3.76s CPU      6.06s WALL (     198 calls)
     ffts         :      0.92s CPU      1.74s WALL (      68 calls)
     fftw         :    181.27s CPU    294.37s WALL (  107580 calls)
     interpolate  :      1.80s CPU      2.92s WALL (      36 calls)
 
     Parallel routines
     fft_scatt_xy :      4.18s CPU      5.36s WALL (  107846 calls)
     fft_scatt_yz :    161.30s CPU    271.21s WALL (  107846 calls)

     PAW routines
     PAW_pot      :      2.26s CPU      3.27s WALL (       9 calls)
     PAW_symme    :      0.08s CPU      0.14s WALL (      17 calls)
 
     PWSCF        :   5m49.18s CPU   8m55.03s WALL

 
   This run was terminated on:  18:57:48  23Jan2021            

=------------------------------------------------------------------------------=
   JOB DONE.
=------------------------------------------------------------------------------=
